
     Program BANDS v.6.4.1 starts on 19Feb2020 at  8:33:25 

     This program is part of the open-source Quantum ESPRESSO suite
     for quantum simulation of materials; please cite
         "P. Giannozzi et al., J. Phys.:Condens. Matter 21 395502 (2009);
         "P. Giannozzi et al., J. Phys.:Condens. Matter 29 465901 (2017);
          URL http://www.quantum-espresso.org", 
     in publications or presentations arising from this work. More details at
     http://www.quantum-espresso.org/quote

     Parallel version (MPI), running on     1 processors

     MPI processes distributed on     1 nodes

     Reading data from directory:
     ./Cu.Fm-3m.save/

     IMPORTANT: XC functional enforced from input :
     Exchange-correlation      = PZ ( 1  1  0  0 0 0)
     Any further DFT definition will be discarded
     Please, verify this is what you really want

               file Cu.pz-dn-kjpaw_psl.0.2.UPF: wavefunction(s)  4S 3D renormalized

     G-vector sticks info
     --------------------
     sticks:   dense  smooth     PW     G-vecs:    dense   smooth      PW
     Sum        1027     511    163                21595     7631    1363


     Check: negative core charge=   -0.000003
     high-symmetry point:  0.0000 0.0000 0.0000   x coordinate   0.0000
     high-symmetry point:  0.0000 1.0000 0.0000   x coordinate   1.0000
     high-symmetry point:  0.5000 1.0000 0.0000   x coordinate   1.5000
     high-symmetry point:  0.7500 0.7500 0.0000   x coordinate   1.8536
     high-symmetry point:  0.0000 0.0000 0.0000   x coordinate   2.9142
     high-symmetry point:  0.5000 0.5000 0.5000   x coordinate   3.7802
     high-symmetry point:  0.2500 1.0000 0.2500   x coordinate   4.3926
     high-symmetry point:  0.5000 1.0000 0.0000   x coordinate   4.7462
     high-symmetry point:  0.5000 0.5000 0.5000   x coordinate   5.4533
     high-symmetry point:  0.7500 0.7500 0.0000   x coordinate   6.0656
     high-symmetry point:  0.2500 1.0000 0.2500   x coordinate   6.0656
     high-symmetry point:  0.0000 0.0000 0.0000   x coordinate   7.1263

     Plottable bands (eV) written to file Cu.Fm-3m.band.gnu
     Bands written to file Cu.Fm-3m.band

 **************************************************************************

                    xk=(   0.00000,   0.00000,   0.00000  )

     point group O_h (m-3m) 
     there are 10 classes
     the character table:

       E     8C3   3C2   6C4   6C2'  i     8S6   3s_h  6S4   6s_d 
A_1g   1.00  1.00  1.00  1.00  1.00  1.00  1.00  1.00  1.00  1.00
A_2g   1.00  1.00  1.00 -1.00 -1.00  1.00  1.00  1.00 -1.00 -1.00
E_g    2.00 -1.00  2.00  0.00  0.00  2.00 -1.00  2.00  0.00  0.00
T_1g   3.00  0.00 -1.00  1.00 -1.00  3.00  0.00 -1.00  1.00 -1.00
T_2g   3.00  0.00 -1.00 -1.00  1.00  3.00  0.00 -1.00 -1.00  1.00
A_1u   1.00  1.00  1.00  1.00  1.00 -1.00 -1.00 -1.00 -1.00 -1.00
A_2u   1.00  1.00  1.00 -1.00 -1.00 -1.00 -1.00 -1.00  1.00  1.00
E_u    2.00 -1.00  2.00  0.00  0.00 -2.00  1.00 -2.00  0.00  0.00
T_1u   3.00  0.00 -1.00  1.00 -1.00 -3.00  0.00  1.00 -1.00  1.00
T_2u   3.00  0.00 -1.00 -1.00  1.00 -3.00  0.00  1.00  1.00 -1.00

     the symmetry operations in each class and the name of the first element:

     E        1
                                                                 
     8C3     17   19   20   18   24   21   22   23
                                                                 
     3C2      2    4    3
                                                                 
     6C4      7    8   15   16   12   11
                                                                 
     6C2'     5    6   14   13   10    9
                                                                 
     i       25
                                                                 
     8S6     41   43   44   42   48   45   46   47
                                                                 
     3s_h    26   28   27
                                                                 
     6S4     31   32   39   40   36   35
                                                                 
     6s_d    29   30   38   37   34   33
                                                                 

     Band symmetry, O_h (m-3m)  point group:

     e(  1 -  1) =      4.92896  eV     1   --> A_1g G_1   G_1+
     e(  2 -  4) =     11.37995  eV     3   --> T_2g G_25' G_5+
     e(  5 -  6) =     12.24550  eV     2   --> E_g  G_12  G_3+
     e(  7 -  7) =     37.60533  eV     1   --> A_2u G_2'  G_2-
     e(  8 - 10) =     39.90308  eV     3   --> T_1u G_15  G_4-
     e( 11 - 11) =     42.35507  eV     1   -->   ?

 **************************************************************************

 **************************************************************************

                    xk=(   0.00000,   0.10000,   0.00000  )

     point group C_4v (4mm) 
     there are  5 classes
     the character table:

       E     2C4   C2    2s_v  2s_d 
A_1    1.00  1.00  1.00  1.00  1.00
A_2    1.00  1.00  1.00 -1.00 -1.00
B_1    1.00 -1.00  1.00  1.00 -1.00
B_2    1.00 -1.00  1.00 -1.00  1.00
E      2.00  0.00 -2.00  0.00  0.00

     the symmetry operations in each class and the name of the first element:

     E        1
                                                                 
     2C4      3    4
                                                                 
     C2       2
                                                                 
     2s_v     5    6
                                                                 
     2s_d     7    8
                                                                 

     Band symmetry, C_4v (4mm)  point group:

     e(  1 -  1) =      5.05192  eV     1   --> A_1  G_1 D_1   
     e(  2 -  2) =     11.34278  eV     1   --> B_2  G_4 D_2'  
     e(  3 -  4) =     11.40976  eV     2   --> E    G_5 D_5   
     e(  5 -  5) =     12.21150  eV     1   --> A_1  G_1 D_1   
     e(  6 -  6) =     12.25927  eV     1   --> B_1  G_3 D_2   
     e(  7 -  7) =     37.14383  eV     1   --> B_2  G_4 D_2'  
     e(  8 -  9) =     38.67353  eV     2   --> E    G_5 D_5   
     e( 10 - 10) =     39.42594  eV     1   --> A_1  G_1 D_1   
     e( 11 - 11) =     43.08320  eV     1   --> B_2  G_4 D_2'  

 **************************************************************************

 **************************************************************************

                    xk=(   0.00000,   0.20000,   0.00000  )

     Band symmetry, C_4v (4mm)  point group:

     e(  1 -  1) =      5.41701  eV     1   --> A_1  G_1 D_1   
     e(  2 -  2) =     11.23558  eV     1   --> B_2  G_4 D_2'  
     e(  3 -  4) =     11.49825  eV     2   --> E    G_5 D_5   
     e(  5 -  5) =     12.11519  eV     1   --> A_1  G_1 D_1   
     e(  6 -  6) =     12.29931  eV     1   --> B_1  G_3 D_2   
     e(  7 -  7) =     36.21782  eV     1   --> B_2  G_4 D_2'  
     e(  8 -  9) =     36.79694  eV     2   --> E    G_5 D_5   
     e( 10 - 10) =     38.36145  eV     1   --> A_1  G_1 D_1   
     e( 11 - 11) =     44.22559  eV     1   --> A_1  G_1 D_1   

 **************************************************************************

 **************************************************************************

                    xk=(   0.00000,   0.30000,   0.00000  )

     Band symmetry, C_4v (4mm)  point group:

     e(  1 -  1) =      6.01109  eV     1   --> A_1  G_1 D_1   
     e(  2 -  2) =     11.07052  eV     1   --> B_2  G_4 D_2'  
     e(  3 -  4) =     11.64219  eV     2   --> E    G_5 D_5   
     e(  5 -  5) =     11.97547  eV     1   --> A_1  G_1 D_1   
     e(  6 -  6) =     12.36196  eV     1   --> B_1  G_3 D_2   
     e(  7 -  8) =     34.94923  eV     2   --> E    G_5 D_5   
     e(  9 -  9) =     35.27461  eV     1   --> B_2  G_4 D_2'  
     e( 10 - 10) =     37.10415  eV     1   --> A_1  G_1 D_1   
     e( 11 - 11) =     41.00105  eV     1   --> A_1  G_1 D_1   

 **************************************************************************

 **************************************************************************

                    xk=(   0.00000,   0.40000,   0.00000  )

     Band symmetry, C_4v (4mm)  point group:

     e(  1 -  1) =      6.80437  eV     1   --> A_1  G_1 D_1   
     e(  2 -  2) =     10.86578  eV     1   --> B_2  G_4 D_2'  
     e(  3 -  3) =     11.83143  eV     1   --> A_1  G_1 D_1   
     e(  4 -  5) =     11.83520  eV     2   --> E    G_5 D_5   
     e(  6 -  6) =     12.44140  eV     1   --> B_1  G_3 D_2   
     e(  7 -  8) =     33.22137  eV     2   --> E    G_5 D_5   
     e(  9 -  9) =     34.44990  eV     1   --> B_2  G_4 D_2'  
     e( 10 - 10) =     35.52207  eV     1   --> A_1  G_1 D_1   
     e( 11 - 11) =     38.23102  eV     1   --> A_1  G_1 D_1   

 **************************************************************************

 **************************************************************************

                    xk=(   0.00000,   0.50000,   0.00000  )

     Band symmetry, C_4v (4mm)  point group:

     e(  1 -  1) =      7.72856  eV     1   --> A_1  G_1 D_1   
     e(  2 -  2) =     10.64298  eV     1   --> B_2  G_4 D_2'  
     e(  3 -  3) =     11.76253  eV     1   --> A_1  G_1 D_1   
     e(  4 -  5) =     12.06634  eV     2   --> E    G_5 D_5   
     e(  6 -  6) =     12.53011  eV     1   --> B_1  G_3 D_2   
     e(  7 -  8) =     31.65440  eV     2   --> E    G_5 D_5   
     e(  9 -  9) =     33.08166  eV     1   --> A_1  G_1 D_1   
     e( 10 - 10) =     33.77307  eV     1   --> B_2  G_4 D_2'  
     e( 11 - 11) =     36.62986  eV     1   --> A_1  G_1 D_1   

 **************************************************************************

 **************************************************************************

                    xk=(   0.00000,   0.60000,   0.00000  )

     Band symmetry, C_4v (4mm)  point group:

     e(  1 -  1) =      8.62168  eV     1   --> A_1  G_1 D_1   
     e(  2 -  2) =     10.42438  eV     1   --> B_2  G_4 D_2'  
     e(  3 -  3) =     11.93884  eV     1   --> A_1  G_1 D_1   
     e(  4 -  5) =     12.31847  eV     2   --> E    G_5 D_5   
     e(  6 -  6) =     12.61952  eV     1   --> B_1  G_3 D_2   
     e(  7 -  7) =     30.20379  eV     1   --> A_1  G_1 D_1   
     e(  8 -  9) =     30.28442  eV     2   --> E    G_5 D_5   
     e( 10 - 10) =     33.24239  eV     1   --> B_2  G_4 D_2'  
     e( 11 - 11) =     35.82600  eV     1   --> A_1  G_1 D_1   

 **************************************************************************

 **************************************************************************

                    xk=(   0.00000,   0.70000,   0.00000  )

     Band symmetry, C_4v (4mm)  point group:

     e(  1 -  1) =      9.21606  eV     1   --> A_1  G_1 D_1   
     e(  2 -  2) =     10.23070  eV     1   --> B_2  G_4 D_2'  
     e(  3 -  4) =     12.56722  eV     2   --> E    G_5 D_5   
     e(  5 -  5) =     12.62216  eV     1   --> A_1  G_1 D_1   
     e(  6 -  6) =     12.70078  eV     1   --> B_1  G_3 D_2   
     e(  7 -  7) =     27.37122  eV     1   --> A_1  G_1 D_1   
     e(  8 -  9) =     29.15050  eV     2   --> E    G_5 D_5   
     e( 10 - 10) =     32.84704  eV     1   --> B_2  G_4 D_2'  
     e( 11 - 11) =     35.35818  eV     1   --> A_1  G_1 D_1   

 **************************************************************************

 **************************************************************************

                    xk=(   0.00000,   0.80000,   0.00000  )

     Band symmetry, C_4v (4mm)  point group:

     e(  1 -  1) =      9.44197  eV     1   --> A_1  G_1 D_1   
     e(  2 -  2) =     10.07931  eV     1   --> B_2  G_4 D_2'  
     e(  3 -  3) =     12.76569  eV     1   --> B_1  G_3 D_2   
     e(  4 -  5) =     12.78162  eV     2   --> E    G_5 D_5   
     e(  6 -  6) =     13.83355  eV     1   --> A_1  G_1 D_1   
     e(  7 -  7) =     24.77436  eV     1   --> A_1  G_1 D_1   
     e(  8 -  9) =     28.29522  eV     2   --> E    G_5 D_5   
     e( 10 - 10) =     32.57492  eV     1   --> B_2  G_4 D_2'  
     e( 11 - 11) =     35.08272  eV     1   --> A_1  G_1 D_1   

 **************************************************************************

 **************************************************************************

                    xk=(   0.00000,   0.90000,   0.00000  )

     Band symmetry, C_4v (4mm)  point group:

     e(  1 -  1) =      9.48902  eV     1   --> A_1  G_1 D_1   
     e(  2 -  2) =      9.98317  eV     1   --> B_2  G_4 D_2'  
     e(  3 -  3) =     12.80755  eV     1   --> B_1  G_3 D_2   
     e(  4 -  5) =     12.92845  eV     2   --> E    G_5 D_5   
     e(  6 -  6) =     15.19045  eV     1   --> A_1  G_1 D_1   
     e(  7 -  7) =     22.65891  eV     1   --> A_1  G_1 D_1   
     e(  8 -  9) =     27.76034  eV     2   --> E    G_5 D_5   
     e( 10 - 10) =     32.41598  eV     1   --> B_2  G_4 D_2'  
     e( 11 - 11) =     34.93853  eV     1   --> A_1  G_1 D_1   

 **************************************************************************

 **************************************************************************

                    xk=(   0.00000,   1.00000,   0.00000  )

     point group D_4h(4/mmm)
     there are 10 classes
     the character table:

       E     2C4   C2    2C2'  2C2'' i     2S4   s_h   2s_v  2s_d 
A_1g   1.00  1.00  1.00  1.00  1.00  1.00  1.00  1.00  1.00  1.00
A_2g   1.00  1.00  1.00 -1.00 -1.00  1.00  1.00  1.00 -1.00 -1.00
B_1g   1.00 -1.00  1.00  1.00 -1.00  1.00 -1.00  1.00  1.00 -1.00
B_2g   1.00 -1.00  1.00 -1.00  1.00  1.00 -1.00  1.00 -1.00  1.00
E_g    2.00  0.00 -2.00  0.00  0.00  2.00  0.00 -2.00  0.00  0.00
A_1u   1.00  1.00  1.00  1.00  1.00 -1.00 -1.00 -1.00 -1.00 -1.00
A_2u   1.00  1.00  1.00 -1.00 -1.00 -1.00 -1.00 -1.00  1.00  1.00
B_1u   1.00 -1.00  1.00  1.00 -1.00 -1.00  1.00 -1.00 -1.00  1.00
B_2u   1.00 -1.00  1.00 -1.00  1.00 -1.00  1.00 -1.00  1.00 -1.00
E_u    2.00  0.00 -2.00  0.00  0.00 -2.00  0.00  2.00  0.00  0.00

     the symmetry operations in each class and the name of the first element:

     E        1
                                                                 
     2C4      7    8
                                                                 
     C2       3
                                                                 
     2C2'     2    4
                                                                 
     2C2''    5    6
                                                                 
     i        9
                                                                 
     2S4     15   16
                                                                 
     s_h     11
                                                                 
     2s_v    10   12
                                                                 
     2s_d    13   14
                                                                 

     Band symmetry, D_4h(4/mmm) point group:

     e(  1 -  1) =      9.49229  eV     1   --> A_1g X_1  M_1  
     e(  2 -  2) =      9.95023  eV     1   --> B_2g X_3  M_3  
     e(  3 -  3) =     12.82202  eV     1   --> B_1g X_2  M_2  
     e(  4 -  5) =     12.98089  eV     2   --> E_g  X_5  M_5  
     e(  6 -  6) =     15.89738  eV     1   --> A_2u X_4' M_4' 
     e(  7 -  7) =     21.70915  eV     1   --> A_1g X_1  M_1  
     e(  8 -  9) =     27.57797  eV     2   --> E_u  X_5' M_5' 
     e( 10 - 10) =     32.36375  eV     1   --> B_2g X_3  M_3  
     e( 11 - 11) =     34.89390  eV     1   --> A_1g X_1  M_1  

 **************************************************************************

 **************************************************************************

                    xk=(   0.05000,   1.00000,   0.00000  )

     point group C_2v (mm2) 
     there are  4 classes
     the character table:

       E     C2    s_v   s_v' 
A_1    1.00  1.00  1.00  1.00
A_2    1.00  1.00 -1.00 -1.00
B_1    1.00 -1.00  1.00 -1.00
B_2    1.00 -1.00 -1.00  1.00

     the symmetry operations in each class and the name of the first element:

     E        1
                                                                 
     C2       2
                                                                 
     s_v      4
                                                                 
     s_v'     3
                                                                 

     Band symmetry, C_2v (mm2)  point group:

     e(  1 -  1) =      9.50686  eV     1   --> A_1  D_1  S_1  
     e(  2 -  2) =      9.95891  eV     1   --> B_1  D_3  S_3  
     e(  3 -  3) =     12.81083  eV     1   --> A_1  D_1  S_1  
     e(  4 -  4) =     12.92034  eV     1   --> B_2  D_4  S_4  
     e(  5 -  5) =     12.98091  eV     1   --> A_2  D_2  S_2  
     e(  6 -  6) =     15.98563  eV     1   --> B_2  D_4  S_4  
     e(  7 -  7) =     21.71987  eV     1   --> A_1  D_1  S_1  
     e(  8 -  8) =     27.36906  eV     1   --> B_1  D_3  S_3  
     e(  9 -  9) =     27.44382  eV     1   --> A_1  D_1  S_1  
     e( 10 - 10) =     32.61024  eV     1   --> B_1  D_3  S_3  
     e( 11 - 11) =     35.09489  eV     1   --> A_1  D_1  S_1  

 **************************************************************************

 **************************************************************************

                    xk=(   0.10000,   1.00000,   0.00000  )

     Band symmetry, C_2v (mm2)  point group:

     e(  1 -  1) =      9.54988  eV     1   --> A_1  D_1  S_1  
     e(  2 -  2) =      9.98502  eV     1   --> B_1  D_3  S_3  
     e(  3 -  3) =     12.75770  eV     1   --> B_2  D_4  S_4  
     e(  4 -  4) =     12.77762  eV     1   --> A_1  D_1  S_1  
     e(  5 -  5) =     12.98096  eV     1   --> A_2  D_2  S_2  
     e(  6 -  6) =     16.23130  eV     1   --> B_2  D_4  S_4  
     e(  7 -  7) =     21.75246  eV     1   --> A_1  D_1  S_1  
     e(  8 -  8) =     26.83695  eV     1   --> B_1  D_3  S_3  
     e(  9 -  9) =     27.08229  eV     1   --> A_1  D_1  S_1  
     e( 10 - 10) =     33.25523  eV     1   --> B_1  D_3  S_3  
     e( 11 - 11) =     35.65634  eV     1   --> A_1  D_1  S_1  

 **************************************************************************

 **************************************************************************

                    xk=(   0.15000,   1.00000,   0.00000  )

     Band symmetry, C_2v (mm2)  point group:

     e(  1 -  1) =      9.61919  eV     1   --> A_1  D_1  S_1  
     e(  2 -  2) =     10.02874  eV     1   --> B_1  D_3  S_3  
     e(  3 -  3) =     12.53163  eV     1   --> B_2  D_4  S_4  
     e(  4 -  4) =     12.72354  eV     1   --> A_1  D_1  S_1  
     e(  5 -  5) =     12.98105  eV     1   --> A_2  D_2  S_2  
     e(  6 -  6) =     16.59547  eV     1   --> B_2  D_4  S_4  
     e(  7 -  7) =     21.80810  eV     1   --> A_1  D_1  S_1  
     e(  8 -  8) =     26.13554  eV     1   --> B_1  D_3  S_3  
     e(  9 -  9) =     26.57934  eV     1   --> A_1  D_1  S_1  
     e( 10 - 10) =     34.14514  eV     1   --> B_1  D_3  S_3  
     e( 11 - 11) =     36.49050  eV     1   --> A_1  D_1  S_1  

 **************************************************************************

 **************************************************************************

                    xk=(   0.20000,   1.00000,   0.00000  )

     Band symmetry, C_2v (mm2)  point group:

     e(  1 -  1) =      9.71100  eV     1   --> A_1  D_1  S_1  
     e(  2 -  2) =     10.09033  eV     1   --> B_1  D_3  S_3  
     e(  3 -  3) =     12.27553  eV     1   --> B_2  D_4  S_4  
     e(  4 -  4) =     12.65079  eV     1   --> A_1  D_1  S_1  
     e(  5 -  5) =     12.98116  eV     1   --> A_2  D_2  S_2  
     e(  6 -  6) =     17.04434  eV     1   --> B_2  D_4  S_4  
     e(  7 -  7) =     21.88877  eV     1   --> A_1  D_1  S_1  
     e(  8 -  8) =     25.36164  eV     1   --> B_1  D_3  S_3  
     e(  9 -  9) =     26.01290  eV     1   --> A_1  D_1  S_1  
     e( 10 - 10) =     35.18373  eV     1   --> B_1  D_3  S_3  
     e( 11 - 11) =     37.51579  eV     1   --> A_1  D_1  S_1  

 **************************************************************************

 **************************************************************************

                    xk=(   0.25000,   1.00000,   0.00000  )

     Band symmetry, C_2v (mm2)  point group:

     e(  1 -  1) =      9.81966  eV     1   --> A_1  D_1  S_1  
     e(  2 -  2) =     10.17015  eV     1   --> B_1  D_3  S_3  
     e(  3 -  3) =     12.01096  eV     1   --> B_2  D_4  S_4  
     e(  4 -  4) =     12.56309  eV     1   --> A_1  D_1  S_1  
     e(  5 -  5) =     12.98129  eV     1   --> A_2  D_2  S_2  
     e(  6 -  6) =     17.55575  eV     1   --> B_2  D_4  S_4  
     e(  7 -  7) =     21.99714  eV     1   --> A_1  D_1  S_1  
     e(  8 -  8) =     24.56290  eV     1   --> B_1  D_3  S_3  
     e(  9 -  9) =     25.43580  eV     1   --> A_1  D_1  S_1  
     e( 10 - 10) =     36.32405  eV     1   --> B_1  D_3  S_3  
     e( 11 - 11) =     38.67277  eV     1   --> A_1  D_1  S_1  

 **************************************************************************

 **************************************************************************

                    xk=(   0.30000,   1.00000,   0.00000  )

     Band symmetry, C_2v (mm2)  point group:

     e(  1 -  1) =      9.93725  eV     1   --> A_1  D_1  S_1  
     e(  2 -  2) =     10.26861  eV     1   --> B_1  D_3  S_3  
     e(  3 -  3) =     11.75056  eV     1   --> B_2  D_4  S_4  
     e(  4 -  4) =     12.46629  eV     1   --> A_1  D_1  S_1  
     e(  5 -  5) =     12.98141  eV     1   --> A_2  D_2  S_2  
     e(  6 -  6) =     18.11633  eV     1   --> B_2  D_4  S_4  
     e(  7 -  7) =     22.13647  eV     1   --> A_1  D_1  S_1  
     e(  8 -  8) =     23.76264  eV     1   --> B_1  D_3  S_3  
     e(  9 -  9) =     24.88021  eV     1   --> A_1  D_1  S_1  
     e( 10 - 10) =     37.54372  eV     1   --> B_1  D_3  S_3  
     e( 11 - 11) =     39.91709  eV     1   --> A_1  D_1  S_1  

 **************************************************************************

 **************************************************************************

                    xk=(   0.35000,   1.00000,   0.00000  )

     Band symmetry, C_2v (mm2)  point group:

     e(  1 -  1) =     10.05308  eV     1   --> A_1  D_1  S_1  
     e(  2 -  2) =     10.38611  eV     1   --> B_1  D_3  S_3  
     e(  3 -  3) =     11.50157  eV     1   --> B_2  D_4  S_4  
     e(  4 -  4) =     12.36905  eV     1   --> A_1  D_1  S_1  
     e(  5 -  5) =     12.98152  eV     1   --> A_2  D_2  S_2  
     e(  6 -  6) =     18.71792  eV     1   --> B_2  D_4  S_4  
     e(  7 -  7) =     22.31025  eV     1   --> A_1  D_1  S_1  
     e(  8 -  8) =     22.97294  eV     1   --> B_1  D_3  S_3  
     e(  9 -  9) =     24.36502  eV     1   --> A_1  D_1  S_1  
     e( 10 - 10) =     38.83165  eV     1   --> B_1  D_3  S_3  
     e( 11 - 11) =     41.20573  eV     1   --> A_1  D_1  S_1  

 **************************************************************************

 **************************************************************************

                    xk=(   0.40000,   1.00000,   0.00000  )

     Band symmetry, C_2v (mm2)  point group:

     e(  1 -  1) =     10.15352  eV     1   --> A_1  D_1  S_1  
     e(  2 -  2) =     10.52307  eV     1   --> B_1  D_3  S_3  
     e(  3 -  3) =     11.26817  eV     1   --> B_2  D_4  S_4  
     e(  4 -  4) =     12.28325  eV     1   --> A_1  D_1  S_1  
     e(  5 -  5) =     12.98161  eV     1   --> A_2  D_2  S_2  
     e(  6 -  6) =     19.35531  eV     1   --> B_2  D_4  S_4  
     e(  7 -  7) =     22.20064  eV     1   --> B_1  D_3  S_3  
     e(  8 -  8) =     22.52135  eV     1   --> A_1  D_1  S_1  
     e(  9 -  9) =     23.90155  eV     1   --> A_1  D_1  S_1  
     e( 10 - 10) =     40.18218  eV     1   --> B_1  D_3  S_3  
     e( 11 - 11) =     42.47221  eV     1   --> A_1  D_1  S_1  

 **************************************************************************

 **************************************************************************

                    xk=(   0.45000,   1.00000,   0.00000  )

     Band symmetry, C_2v (mm2)  point group:

     e(  1 -  1) =     10.22305  eV     1   --> A_1  D_1  S_1  
     e(  2 -  2) =     10.67977  eV     1   --> B_1  D_3  S_3  
     e(  3 -  3) =     11.05268  eV     1   --> B_2  D_4  S_4  
     e(  4 -  4) =     12.22306  eV     1   --> A_1  D_1  S_1  
     e(  5 -  5) =     12.98167  eV     1   --> A_2  D_2  S_2  
     e(  6 -  6) =     20.02489  eV     1   --> B_2  D_4  S_4  
     e(  7 -  7) =     21.44997  eV     1   --> B_1  D_3  S_3  
     e(  8 -  8) =     22.76706  eV     1   --> A_1  D_1  S_1  
     e(  9 -  9) =     23.50124  eV     1   --> A_1  D_1  S_1  
     e( 10 - 10) =     41.59225  eV     1   --> B_1  D_3  S_3  
     e( 11 - 11) =     43.55692  eV     1   --> A_1  D_1  S_1  

 **************************************************************************

 **************************************************************************

                    xk=(   0.50000,   1.00000,   0.00000  )

     point group D_2d (-42m)
     there are  5 classes
     the character table:

       E     2S4   C2    2C2'  2s_d 
A_1    1.00  1.00  1.00  1.00  1.00
A_2    1.00  1.00  1.00 -1.00 -1.00
B_1    1.00 -1.00  1.00  1.00 -1.00
B_2    1.00 -1.00  1.00 -1.00  1.00
E      2.00  0.00 -2.00  0.00  0.00

     the symmetry operations in each class and the name of the first element:

     E        1
                                                                 
     2S4      7    8
                                                                 
     C2       2
                                                                 
     2C2'     3    4
                                                                 
     2s_d     5    6
                                                                 

     Band symmetry, D_2d (-42m) point group:

     e(  1 -  1) =     10.24809  eV     1   --> B_2  X_3  W_2  
     e(  2 -  3) =     10.85635  eV     2   --> E    X_5  W_3  
     e(  4 -  4) =     12.20122  eV     1   --> A_1  X_1  W_1  
     e(  5 -  5) =     12.98169  eV     1   --> B_1  X_2  W_1' 
     e(  6 -  7) =     20.72391  eV     2   --> E    X_5  W_3  
     e(  8 -  8) =     22.95948  eV     1   --> B_2  X_3  W_2  
     e(  9 -  9) =     23.25678  eV     1   --> A_1  X_1  W_1  
     e( 10 - 11) =     43.06009  eV     2   --> E    X_5  W_3  

 **************************************************************************

 **************************************************************************

                    xk=(   0.52500,   0.97500,  -0.00000  )

     point group C_s (m)    
     there are  2 classes
     the character table:

       E     s    
A'     1.00  1.00
A''    1.00 -1.00

     the symmetry operations in each class and the name of the first element:

     E        1
                                                                 
     s        2
                                                                 

     Band symmetry, C_s (m)     point group:

     e(  1 -  1) =     10.24468  eV     1   --> A'             
     e(  2 -  2) =     10.76295  eV     1   --> A'             
     e(  3 -  3) =     10.95216  eV     1   --> A''            
     e(  4 -  4) =     12.20664  eV     1   --> A'             
     e(  5 -  5) =     12.97805  eV     1   --> A''            
     e(  6 -  6) =     20.38168  eV     1   --> A''            
     e(  7 -  7) =     20.95310  eV     1   --> A'             
     e(  8 -  8) =     22.91706  eV     1   --> A'             
     e(  9 -  9) =     23.46200  eV     1   --> A'             
     e( 10 - 10) =     42.17282  eV     1   --> A'             
     e( 11 - 11) =     43.82150  eV     1   --> A''            

 **************************************************************************

 **************************************************************************

                    xk=(   0.55000,   0.95000,  -0.00000  )

     Band symmetry, C_s (m)     point group:

     e(  1 -  1) =     10.23501  eV     1   --> A'             
     e(  2 -  2) =     10.67145  eV     1   --> A'             
     e(  3 -  3) =     11.05200  eV     1   --> A''            
     e(  4 -  4) =     12.22163  eV     1   --> A'             
     e(  5 -  5) =     12.96715  eV     1   --> A''            
     e(  6 -  6) =     20.06899  eV     1   --> A''            
     e(  7 -  7) =     20.97030  eV     1   --> A'             
     e(  8 -  8) =     22.81524  eV     1   --> A'             
     e(  9 -  9) =     24.00727  eV     1   --> A'             
     e( 10 - 10) =     41.14699  eV     1   --> A'             
     e( 11 - 11) =     44.04384  eV     1   --> A'             

 **************************************************************************

 **************************************************************************

                    xk=(   0.57500,   0.92500,   0.00000  )

     Band symmetry, C_s (m)     point group:

     e(  1 -  1) =     10.21985  eV     1   --> A'             
     e(  2 -  2) =     10.58544  eV     1   --> A'             
     e(  3 -  3) =     11.15400  eV     1   --> A''            
     e(  4 -  4) =     12.24381  eV     1   --> A'             
     e(  5 -  5) =     12.94922  eV     1   --> A''            
     e(  6 -  6) =     19.78750  eV     1   --> A''            
     e(  7 -  7) =     20.87877  eV     1   --> A'             
     e(  8 -  8) =     22.71451  eV     1   --> A'             
     e(  9 -  9) =     24.72494  eV     1   --> A'             
     e( 10 - 10) =     40.06726  eV     1   --> A'             
     e( 11 - 11) =     43.98018  eV     1   --> A'             

 **************************************************************************

 **************************************************************************

                    xk=(   0.60000,   0.90000,   0.00000  )

     Band symmetry, C_s (m)     point group:

     e(  1 -  1) =     10.19986  eV     1   --> A'             
     e(  2 -  2) =     10.50847  eV     1   --> A'             
     e(  3 -  3) =     11.25578  eV     1   --> A''            
     e(  4 -  4) =     12.27049  eV     1   --> A'             
     e(  5 -  5) =     12.92491  eV     1   --> A''            
     e(  6 -  6) =     19.53890  eV     1   --> A''            
     e(  7 -  7) =     20.74959  eV     1   --> A'             
     e(  8 -  8) =     22.62690  eV     1   --> A'             
     e(  9 -  9) =     25.52696  eV     1   --> A'             
     e( 10 - 10) =     38.97177  eV     1   --> A'             
     e( 11 - 11) =     43.89787  eV     1   --> A'             

 **************************************************************************

 **************************************************************************

                    xk=(   0.62500,   0.87500,   0.00000  )

     Band symmetry, C_s (m)     point group:

     e(  1 -  1) =     10.17583  eV     1   --> A'             
     e(  2 -  2) =     10.44366  eV     1   --> A'             
     e(  3 -  3) =     11.35439  eV     1   --> A''            
     e(  4 -  4) =     12.29887  eV     1   --> A'             
     e(  5 -  5) =     12.89548  eV     1   --> A''            
     e(  6 -  6) =     19.32492  eV     1   --> A''            
     e(  7 -  7) =     20.61662  eV     1   --> A'             
     e(  8 -  8) =     22.55407  eV     1   --> A'             
     e(  9 -  9) =     26.37075  eV     1   --> A'             
     e( 10 - 10) =     37.88545  eV     1   --> A'             
     e( 11 - 11) =     43.81344  eV     1   --> A'             

 **************************************************************************

 **************************************************************************

                    xk=(   0.65000,   0.85000,   0.00000  )

     Band symmetry, C_s (m)     point group:

     e(  1 -  1) =     10.14929  eV     1   --> A'             
     e(  2 -  2) =     10.39283  eV     1   --> A'             
     e(  3 -  3) =     11.44613  eV     1   --> A''            
     e(  4 -  4) =     12.32630  eV     1   --> A'             
     e(  5 -  5) =     12.86299  eV     1   --> A''            
     e(  6 -  6) =     19.14719  eV     1   --> A''            
     e(  7 -  7) =     20.49601  eV     1   --> A'             
     e(  8 -  8) =     22.49575  eV     1   --> A'             
     e(  9 -  9) =     27.22862  eV     1   --> A'             
     e( 10 - 10) =     36.83047  eV     1   --> A'             
     e( 11 - 11) =     43.73668  eV     1   --> A'             

 **************************************************************************

 **************************************************************************

                    xk=(   0.67500,   0.82500,  -0.00000  )

     Band symmetry, C_s (m)     point group:

     e(  1 -  1) =     10.12305  eV     1   --> A'             
     e(  2 -  2) =     10.35599  eV     1   --> A'             
     e(  3 -  3) =     11.52645  eV     1   --> A''            
     e(  4 -  4) =     12.35037  eV     1   --> A'             
     e(  5 -  5) =     12.83049  eV     1   --> A''            
     e(  6 -  6) =     19.00722  eV     1   --> A''            
     e(  7 -  7) =     20.39625  eV     1   --> A'             
     e(  8 -  8) =     22.45128  eV     1   --> A'             
     e(  9 -  9) =     28.07038  eV     1   --> A'             
     e( 10 - 10) =     35.83551  eV     1   --> A'             
     e( 11 - 11) =     43.67318  eV     1   --> A'             

 **************************************************************************

 **************************************************************************

                    xk=(   0.70000,   0.80000,   0.00000  )

     Band symmetry, C_s (m)     point group:

     e(  1 -  1) =     10.10080  eV     1   --> A'             
     e(  2 -  2) =     10.33161  eV     1   --> A'             
     e(  3 -  3) =     11.58999  eV     1   --> A''            
     e(  4 -  4) =     12.36909  eV     1   --> A'             
     e(  5 -  5) =     12.80207  eV     1   --> A''            
     e(  6 -  6) =     18.90627  eV     1   --> A''            
     e(  7 -  7) =     20.32220  eV     1   --> A'             
     e(  8 -  8) =     22.42003  eV     1   --> A'             
     e(  9 -  9) =     28.84468  eV     1   --> A'             
     e( 10 - 10) =     34.95167  eV     1   --> A'             
     e( 11 - 11) =     43.62612  eV     1   --> A'             

 **************************************************************************

 **************************************************************************

                    xk=(   0.72500,   0.77500,   0.00000  )

     Band symmetry, C_s (m)     point group:

     e(  1 -  1) =     10.08596  eV     1   --> A'             
     e(  2 -  2) =     10.31786  eV     1   --> A'             
     e(  3 -  3) =     11.63117  eV     1   --> A''            
     e(  4 -  4) =     12.38095  eV     1   --> A'             
     e(  5 -  5) =     12.78236  eV     1   --> A''            
     e(  6 -  6) =     18.84529  eV     1   --> A''            
     e(  7 -  7) =     20.27674  eV     1   --> A'             
     e(  8 -  8) =     22.40149  eV     1   --> A'             
     e(  9 -  9) =     29.44574  eV     1   --> A'             
     e( 10 - 10) =     34.28481  eV     1   --> A'             
     e( 11 - 11) =     43.59729  eV     1   --> A'             

 **************************************************************************

 **************************************************************************

                    xk=(   0.75000,   0.75000,   0.00000  )

     point group C_2v (mm2) 
     there are  4 classes
     the character table:

       E     C2    s_v   s_v' 
A_1    1.00  1.00  1.00  1.00
A_2    1.00  1.00 -1.00 -1.00
B_1    1.00 -1.00  1.00 -1.00
B_2    1.00 -1.00 -1.00  1.00

     the symmetry operations in each class and the name of the first element:

     E        1
                                                                 
     C2       2
                                                                 
     s_v      3
                                                                 
     s_v'     4
                                                                 

     Band symmetry, C_2v (mm2)  point group:

     e(  1 -  1) =     10.08077  eV     1   --> A_1  D_1  S_1  
     e(  2 -  2) =     10.31343  eV     1   --> A_1  D_1  S_1  
     e(  3 -  3) =     11.64550  eV     1   --> B_2  D_4  S_4  
     e(  4 -  4) =     12.38501  eV     1   --> B_1  D_3  S_3  
     e(  5 -  5) =     12.77527  eV     1   --> A_2  D_2  S_2  
     e(  6 -  6) =     18.82490  eV     1   --> B_2  D_4  S_4  
     e(  7 -  7) =     20.26142  eV     1   --> A_1  D_1  S_1  
     e(  8 -  8) =     22.39534  eV     1   --> A_1  D_1  S_1  
     e(  9 -  9) =     29.68760  eV     1   --> B_1  D_3  S_3  
     e( 10 - 10) =     34.02099  eV     1   --> A_1  D_1  S_1  
     e( 11 - 11) =     43.58758  eV     1   --> A_1  D_1  S_1  

 **************************************************************************

 **************************************************************************

                    xk=(   0.67500,   0.67500,   0.00000  )

     Band symmetry, C_2v (mm2)  point group:

     e(  1 -  1) =     10.31159  eV     1   --> A_1  D_1  S_1  
     e(  2 -  2) =     10.48713  eV     1   --> A_1  D_1  S_1  
     e(  3 -  3) =     11.27872  eV     1   --> B_2  D_4  S_4  
     e(  4 -  4) =     12.19169  eV     1   --> B_1  D_3  S_3  
     e(  5 -  5) =     12.64002  eV     1   --> A_2  D_2  S_2  
     e(  6 -  6) =     17.98637  eV     1   --> A_1  D_1  S_1  
     e(  7 -  7) =     20.28327  eV     1   --> B_2  D_4  S_4  
     e(  8 -  8) =     22.96526  eV     1   --> A_1  D_1  S_1  
     e(  9 -  9) =     31.02343  eV     1   --> B_1  D_3  S_3  
     e( 10 - 10) =     34.51248  eV     1   --> A_1  D_1  S_1  
     e( 11 - 11) =     47.59124  eV     1   --> A_1  D_1  S_1  

 **************************************************************************

 **************************************************************************

                    xk=(   0.60000,   0.60000,   0.00000  )

     Band symmetry, C_2v (mm2)  point group:

     e(  1 -  1) =     10.28419  eV     1   --> A_1  D_1  S_1  
     e(  2 -  2) =     10.73270  eV     1   --> A_1  D_1  S_1  
     e(  3 -  3) =     11.02500  eV     1   --> B_2  D_4  S_4  
     e(  4 -  4) =     12.03233  eV     1   --> B_1  D_3  S_3  
     e(  5 -  5) =     12.47839  eV     1   --> A_2  D_2  S_2  
     e(  6 -  6) =     16.04174  eV     1   --> A_1  D_1  S_1  
     e(  7 -  7) =     21.90325  eV     1   --> B_2  D_4  S_4  
     e(  8 -  8) =     23.81951  eV     1   --> A_1  D_1  S_1  
     e(  9 -  9) =     32.60921  eV     1   --> B_1  D_3  S_3  
     e( 10 - 10) =     35.18694  eV     1   --> A_1  D_1  S_1  
     e( 11 - 11) =     47.75594  eV     1   --> B_2  D_4  S_4  

 **************************************************************************

 **************************************************************************

                    xk=(   0.52500,   0.52500,   0.00000  )

     Band symmetry, C_2v (mm2)  point group:

     e(  1 -  1) =      9.87810  eV     1   --> A_1  D_1  S_1  
     e(  2 -  2) =     10.88438  eV     1   --> B_2  D_4  S_4  
     e(  3 -  3) =     10.99841  eV     1   --> A_1  D_1  S_1  
     e(  4 -  4) =     11.92782  eV     1   --> B_1  D_3  S_3  
     e(  5 -  5) =     12.29782  eV     1   --> A_2  D_2  S_2  
     e(  6 -  6) =     14.55434  eV     1   --> A_1  D_1  S_1  
     e(  7 -  7) =     23.67495  eV     1   --> B_2  D_4  S_4  
     e(  8 -  8) =     24.99917  eV     1   --> A_1  D_1  S_1  
     e(  9 -  9) =     34.41317  eV     1   --> B_1  D_3  S_3  
     e( 10 - 10) =     36.08833  eV     1   --> A_1  D_1  S_1  
     e( 11 - 11) =     45.71814  eV     1   --> B_2  D_4  S_4  

 **************************************************************************

 **************************************************************************

                    xk=(   0.45000,   0.45000,   0.00000  )

     Band symmetry, C_2v (mm2)  point group:

     e(  1 -  1) =      9.07515  eV     1   --> A_1  D_1  S_1  
     e(  2 -  2) =     10.84645  eV     1   --> B_2  D_4  S_4  
     e(  3 -  3) =     11.23595  eV     1   --> A_1  D_1  S_1  
     e(  4 -  4) =     11.88661  eV     1   --> B_1  D_3  S_3  
     e(  5 -  5) =     12.10775  eV     1   --> A_2  D_2  S_2  
     e(  6 -  6) =     13.57281  eV     1   --> A_1  D_1  S_1  
     e(  7 -  7) =     25.59416  eV     1   --> B_2  D_4  S_4  
     e(  8 -  8) =     26.51980  eV     1   --> A_1  D_1  S_1  
     e(  9 -  9) =     36.41258  eV     1   --> B_1  D_3  S_3  
     e( 10 - 10) =     37.24190  eV     1   --> A_1  D_1  S_1  
     e( 11 - 11) =     43.90929  eV     1   --> B_2  D_4  S_4  

 **************************************************************************

 **************************************************************************

                    xk=(   0.37500,   0.37500,   0.00000  )

     Band symmetry, C_2v (mm2)  point group:

     e(  1 -  1) =      8.04682  eV     1   --> A_1  D_1  S_1  
     e(  2 -  2) =     10.89262  eV     1   --> B_2  D_4  S_4  
     e(  3 -  3) =     11.42313  eV     1   --> A_1  D_1  S_1  
     e(  4 -  4) =     11.90549  eV     1   --> B_1  D_3  S_3  
     e(  5 -  5) =     11.91918  eV     1   --> A_2  D_2  S_2  
     e(  6 -  6) =     12.96897  eV     1   --> A_1  D_1  S_1  
     e(  7 -  7) =     27.65868  eV     1   --> B_2  D_4  S_4  
     e(  8 -  8) =     28.36686  eV     1   --> A_1  D_1  S_1  
     e(  9 -  9) =     38.59248  eV     1   --> B_1  D_3  S_3  
     e( 10 - 10) =     38.64325  eV     1   --> A_1  D_1  S_1  
     e( 11 - 11) =     42.33775  eV     1   --> B_2  D_4  S_4  

 **************************************************************************

 **************************************************************************

                    xk=(   0.30000,   0.30000,   0.00000  )

     Band symmetry, C_2v (mm2)  point group:

     e(  1 -  1) =      7.02076  eV     1   --> A_1  D_1  S_1  
     e(  2 -  2) =     10.99732  eV     1   --> B_2  D_4  S_4  
     e(  3 -  3) =     11.53771  eV     1   --> A_1  D_1  S_1  
     e(  4 -  4) =     11.74386  eV     1   --> A_2  D_2  S_2  
     e(  5 -  5) =     11.97112  eV     1   --> B_1  D_3  S_3  
     e(  6 -  6) =     12.58590  eV     1   --> A_1  D_1  S_1  
     e(  7 -  7) =     29.86516  eV     1   --> B_2  D_4  S_4  
     e(  8 -  8) =     30.50691  eV     1   --> A_1  D_1  S_1  
     e(  9 -  9) =     40.23733  eV     1   --> A_1  D_1  S_1  
     e( 10 - 10) =     40.94353  eV     1   --> B_1  D_3  S_3  
     e( 11 - 11) =     41.01785  eV     1   --> B_2  D_4  S_4  

 **************************************************************************

 **************************************************************************

                    xk=(   0.22500,   0.22500,   0.00000  )

     Band symmetry, C_2v (mm2)  point group:

     e(  1 -  1) =      6.13997  eV     1   --> A_1  D_1  S_1  
     e(  2 -  2) =     11.12960  eV     1   --> B_2  D_4  S_4  
     e(  3 -  3) =     11.55601  eV     1   --> A_1  D_1  S_1  
     e(  4 -  4) =     11.59326  eV     1   --> A_2  D_2  S_2  
     e(  5 -  5) =     12.06235  eV     1   --> B_1  D_3  S_3  
     e(  6 -  6) =     12.36311  eV     1   --> A_1  D_1  S_1  
     e(  7 -  7) =     32.20196  eV     1   --> B_2  D_4  S_4  
     e(  8 -  8) =     32.89725  eV     1   --> A_1  D_1  S_1  
     e(  9 -  9) =     39.97429  eV     1   --> B_2  D_4  S_4  
     e( 10 - 10) =     41.59401  eV     1   --> B_1  D_3  S_3  
     e( 11 - 11) =     41.86970  eV     1   --> A_1  D_1  S_1  

 **************************************************************************

 **************************************************************************

                    xk=(   0.15000,   0.15000,   0.00000  )

     Band symmetry, C_2v (mm2)  point group:

     e(  1 -  1) =      5.47670  eV     1   --> A_1  D_1  S_1  
     e(  2 -  2) =     11.25634  eV     1   --> B_2  D_4  S_4  
     e(  3 -  3) =     11.47759  eV     1   --> A_2  D_2  S_2  
     e(  4 -  4) =     11.49059  eV     1   --> A_1  D_1  S_1  
     e(  5 -  5) =     12.15382  eV     1   --> B_1  D_3  S_3  
     e(  6 -  6) =     12.27156  eV     1   --> A_1  D_1  S_1  
     e(  7 -  7) =     34.61953  eV     1   --> B_2  D_4  S_4  
     e(  8 -  8) =     35.48028  eV     1   --> A_1  D_1  S_1  
     e(  9 -  9) =     39.26082  eV     1   --> B_2  D_4  S_4  
     e( 10 - 10) =     40.66826  eV     1   --> B_1  D_3  S_3  
     e( 11 - 11) =     42.64934  eV     1   --> A_2  D_2  S_2  

 **************************************************************************

 **************************************************************************

                    xk=(   0.07500,   0.07500,   0.00000  )

     Band symmetry, C_2v (mm2)  point group:

     e(  1 -  1) =      5.06721  eV     1   --> A_1  D_1  S_1  
     e(  2 -  2) =     11.34705  eV     1   --> B_2  D_4  S_4  
     e(  3 -  3) =     11.40479  eV     1   --> A_2  D_2  S_2  
     e(  4 -  4) =     11.41217  eV     1   --> A_1  D_1  S_1  
     e(  5 -  5) =     12.22091  eV     1   --> B_1  D_3  S_3  
     e(  6 -  6) =     12.24854  eV     1   --> A_1  D_1  S_1  
     e(  7 -  7) =     36.81680  eV     1   --> B_2  D_4  S_4  
     e(  8 -  8) =     38.12274  eV     1   --> A_1  D_1  S_1  
     e(  9 -  9) =     39.11732  eV     1   --> B_2  D_4  S_4  
     e( 10 - 10) =     40.09654  eV     1   --> B_1  D_3  S_3  
     e( 11 - 11) =     42.42794  eV     1   --> A_2  D_2  S_2  

 **************************************************************************

 **************************************************************************

                    xk=(   0.00000,   0.00000,   0.00000  )

     point group O_h (m-3m) 
     there are 10 classes
     the character table:

       E     8C3   3C2   6C4   6C2'  i     8S6   3s_h  6S4   6s_d 
A_1g   1.00  1.00  1.00  1.00  1.00  1.00  1.00  1.00  1.00  1.00
A_2g   1.00  1.00  1.00 -1.00 -1.00  1.00  1.00  1.00 -1.00 -1.00
E_g    2.00 -1.00  2.00  0.00  0.00  2.00 -1.00  2.00  0.00  0.00
T_1g   3.00  0.00 -1.00  1.00 -1.00  3.00  0.00 -1.00  1.00 -1.00
T_2g   3.00  0.00 -1.00 -1.00  1.00  3.00  0.00 -1.00 -1.00  1.00
A_1u   1.00  1.00  1.00  1.00  1.00 -1.00 -1.00 -1.00 -1.00 -1.00
A_2u   1.00  1.00  1.00 -1.00 -1.00 -1.00 -1.00 -1.00  1.00  1.00
E_u    2.00 -1.00  2.00  0.00  0.00 -2.00  1.00 -2.00  0.00  0.00
T_1u   3.00  0.00 -1.00  1.00 -1.00 -3.00  0.00  1.00 -1.00  1.00
T_2u   3.00  0.00 -1.00 -1.00  1.00 -3.00  0.00  1.00  1.00 -1.00

     the symmetry operations in each class and the name of the first element:

     E        1
                                                                 
     8C3     17   19   20   18   24   21   22   23
                                                                 
     3C2      2    4    3
                                                                 
     6C4      7    8   15   16   12   11
                                                                 
     6C2'     5    6   14   13   10    9
                                                                 
     i       25
                                                                 
     8S6     41   43   44   42   48   45   46   47
                                                                 
     3s_h    26   28   27
                                                                 
     6S4     31   32   39   40   36   35
                                                                 
     6s_d    29   30   38   37   34   33
                                                                 

     Band symmetry, O_h (m-3m)  point group:

     e(  1 -  1) =      4.92896  eV     1   --> A_1g G_1   G_1+
     e(  2 -  4) =     11.37995  eV     3   --> T_2g G_25' G_5+
     e(  5 -  6) =     12.24550  eV     2   --> E_g  G_12  G_3+
     e(  7 -  7) =     37.60533  eV     1   --> A_2u G_2'  G_2-
     e(  8 - 10) =     39.90308  eV     3   --> T_1u G_15  G_4-
     e( 11 - 11) =     42.35507  eV     1   -->   ?

 **************************************************************************

 **************************************************************************

                    xk=(   0.05000,   0.05000,   0.05000  )

     point group C_3v (3m)  
     there are  3 classes
     the character table:

       E     2C3   3s_v 
A_1    1.00  1.00  1.00
A_2    1.00  1.00 -1.00
E      2.00 -1.00  0.00

     the symmetry operations in each class and the name of the first element:

     E        1
                                                                 
     2C3      2    3
                                                                 
     3s_v     4    5    6
                                                                 

     Band symmetry, C_3v (3m)   point group:

     e(  1 -  1) =      5.02121  eV     1   --> A_1  L_1       
     e(  2 -  2) =     11.35986  eV     1   --> A_1  L_1       
     e(  3 -  4) =     11.39807  eV     2   --> E    L_3       
     e(  5 -  6) =     12.23822  eV     2   --> E    L_3       
     e(  7 -  7) =     37.01023  eV     1   --> A_1  L_1       
     e(  8 -  8) =     38.72984  eV     1   --> A_1  L_1       
     e(  9 - 10) =     39.57900  eV     2   --> E    L_3       
     e( 11 - 11) =     42.81758  eV     1   -->   ?

 **************************************************************************

 **************************************************************************

                    xk=(   0.10000,   0.10000,   0.10000  )

     Band symmetry, C_3v (3m)   point group:

     e(  1 -  1) =      5.29554  eV     1   --> A_1  L_1       
     e(  2 -  2) =     11.30416  eV     1   --> A_1  L_1       
     e(  3 -  4) =     11.44664  eV     2   --> E    L_3       
     e(  5 -  6) =     12.22185  eV     2   --> E    L_3       
     e(  7 -  7) =     34.79653  eV     1   --> A_1  L_1       
     e(  8 -  8) =     38.23056  eV     1   --> A_1  L_1       
     e(  9 - 10) =     38.96189  eV     2   --> E    L_3       
     e( 11 - 11) =     43.82741  eV     1   -->   ?

 **************************************************************************

 **************************************************************************

                    xk=(   0.15000,   0.15000,   0.15000  )

     Band symmetry, C_3v (3m)   point group:

     e(  1 -  1) =      5.74381  eV     1   --> A_1  L_1       
     e(  2 -  2) =     11.22665  eV     1   --> A_1  L_1       
     e(  3 -  4) =     11.50687  eV     2   --> E    L_3       
     e(  5 -  6) =     12.21405  eV     2   --> E    L_3       
     e(  7 -  7) =     32.17028  eV     1   --> A_1  L_1       
     e(  8 -  8) =     38.02846  eV     1   --> A_1  L_1       
     e(  9 - 10) =     38.35037  eV     2   --> E    L_3       
     e( 11 - 11) =     44.47903  eV     1   --> A_1  L_1       

 **************************************************************************

 **************************************************************************

                    xk=(   0.20000,   0.20000,   0.20000  )

     Band symmetry, C_3v (3m)   point group:

     e(  1 -  1) =      6.34897  eV     1   --> A_1  L_1       
     e(  2 -  2) =     11.15143  eV     1   --> A_1  L_1       
     e(  3 -  4) =     11.54763  eV     2   --> E    L_3       
     e(  5 -  6) =     12.24341  eV     2   --> E    L_3       
     e(  7 -  7) =     29.56259  eV     1   --> A_1  L_1       
     e(  8 -  8) =     37.76471  eV     1   --> A_1  L_1       
     e(  9 - 10) =     37.82222  eV     2   --> E    L_3       
     e( 11 - 11) =     44.43092  eV     1   --> A_1  L_1       

 **************************************************************************

 **************************************************************************

                    xk=(   0.25000,   0.25000,   0.25000  )

     Band symmetry, C_3v (3m)   point group:

     e(  1 -  1) =      7.07670  eV     1   --> A_1  L_1       
     e(  2 -  2) =     11.11809  eV     1   --> A_1  L_1       
     e(  3 -  4) =     11.54476  eV     2   --> E    L_3       
     e(  5 -  6) =     12.32951  eV     2   --> E    L_3       
     e(  7 -  7) =     27.05115  eV     1   --> A_1  L_1       
     e(  8 -  9) =     37.39504  eV     2   --> E    L_3       
     e( 10 - 10) =     37.40780  eV     1   --> A_1  L_1       
     e( 11 - 11) =     43.21454  eV     1   -->   ?

 **************************************************************************

 **************************************************************************

                    xk=(   0.30000,   0.30000,   0.30000  )

     Band symmetry, C_3v (3m)   point group:

     e(  1 -  1) =      7.85567  eV     1   --> A_1  L_1       
     e(  2 -  2) =     11.19664  eV     1   --> A_1  L_1       
     e(  3 -  4) =     11.50459  eV     2   --> E    L_3       
     e(  5 -  6) =     12.45897  eV     2   --> E    L_3       
     e(  7 -  7) =     24.67224  eV     1   --> A_1  L_1       
     e(  8 -  8) =     37.00203  eV     1   --> A_1  L_1       
     e(  9 - 10) =     37.06973  eV     2   --> E    L_3       
     e( 11 - 11) =     42.05919  eV     1   -->   ?

 **************************************************************************

 **************************************************************************

                    xk=(   0.35000,   0.35000,   0.35000  )

     Band symmetry, C_3v (3m)   point group:

     e(  1 -  1) =      8.54942  eV     1   --> A_1  L_1       
     e(  2 -  3) =     11.44965  eV     2   --> E    L_3       
     e(  4 -  4) =     11.50707  eV     1   --> A_1  L_1       
     e(  5 -  6) =     12.59991  eV     2   --> E    L_3       
     e(  7 -  7) =     22.46432  eV     1   --> A_1  L_1       
     e(  8 -  8) =     36.61246  eV     1   --> A_1  L_1       
     e(  9 - 10) =     36.84047  eV     2   --> E    L_3       
     e( 11 - 11) =     41.09736  eV     1   -->   ?

 **************************************************************************

 **************************************************************************

                    xk=(   0.40000,   0.40000,   0.40000  )

     Band symmetry, C_3v (3m)   point group:

     e(  1 -  1) =      9.00445  eV     1   --> A_1  L_1       
     e(  2 -  3) =     11.39883  eV     2   --> E    L_3       
     e(  4 -  4) =     12.14864  eV     1   --> A_1  L_1       
     e(  5 -  6) =     12.72285  eV     2   --> E    L_3       
     e(  7 -  7) =     20.49717  eV     1   --> A_1  L_1       
     e(  8 -  8) =     36.29572  eV     1   --> A_1  L_1       
     e(  9 - 10) =     36.69646  eV     2   --> E    L_3       
     e( 11 - 11) =     40.37193  eV     1   -->   ?

 **************************************************************************

 **************************************************************************

                    xk=(   0.45000,   0.45000,   0.45000  )

     Band symmetry, C_3v (3m)   point group:

     e(  1 -  1) =      9.21374  eV     1   --> A_1  L_1       
     e(  2 -  3) =     11.36405  eV     2   --> E    L_3       
     e(  4 -  5) =     12.80581  eV     2   --> E    L_3       
     e(  6 -  6) =     12.96221  eV     1   --> A_1  L_1       
     e(  7 -  7) =     18.94772  eV     1   --> A_1  L_1       
     e(  8 -  8) =     36.09102  eV     1   --> A_1  L_1       
     e(  9 - 10) =     36.62187  eV     2   --> E    L_3       
     e( 11 - 11) =     39.91733  eV     1   -->   ?

 **************************************************************************

 **************************************************************************

                    xk=(   0.50000,   0.50000,   0.50000  )

     point group D_3d (-3m) 
     there are  6 classes
     the character table:

       E     2C3   3C2'  i     2S6   3s_d 
A_1g   1.00  1.00  1.00  1.00  1.00  1.00
A_2g   1.00  1.00 -1.00  1.00  1.00 -1.00
E_g    2.00 -1.00  0.00  2.00 -1.00  0.00
A_1u   1.00  1.00  1.00 -1.00 -1.00 -1.00
A_2u   1.00  1.00 -1.00 -1.00 -1.00  1.00
E_u    2.00 -1.00  0.00 -2.00  1.00  0.00

     the symmetry operations in each class and the name of the first element:

     E        1
                                                                 
     2C3      5    6
                                                                 
     3C2'     2    4    3
                                                                 
     i        7
                                                                 
     2S6     11   12
                                                                 
     3s_d     8   10    9
                                                                 

     Band symmetry, D_3d (-3m)  point group:

     e(  1 -  1) =      9.26962  eV     1   --> A_1g L_1       
     e(  2 -  3) =     11.35176  eV     2   --> E_g  L_3       
     e(  4 -  5) =     12.83504  eV     2   --> E_g  L_3       
     e(  6 -  6) =     13.39378  eV     1   --> A_2u L_2'      
     e(  7 -  7) =     18.28403  eV     1   --> A_1g L_1       
     e(  8 -  8) =     36.02043  eV     1   --> A_2u L_2'      
     e(  9 - 10) =     36.59966  eV     2   --> E_u  L_3'      
     e( 11 - 11) =     39.76186  eV     1   -->   ?

 **************************************************************************

 **************************************************************************

                    xk=(   0.47500,   0.55000,   0.47500  )

     point group C_s (m)    
     there are  2 classes
     the character table:

       E     s    
A'     1.00  1.00
A''    1.00 -1.00

     the symmetry operations in each class and the name of the first element:

     E        1
                                                                 
     s        2
                                                                 

     Band symmetry, C_s (m)     point group:

     e(  1 -  1) =      9.29812  eV     1   --> A'             
     e(  2 -  2) =     11.33372  eV     1   --> A'             
     e(  3 -  3) =     11.36828  eV     1   --> A''            
     e(  4 -  4) =     12.59514  eV     1   --> A'             
     e(  5 -  5) =     12.83253  eV     1   --> A''            
     e(  6 -  6) =     13.68270  eV     1   --> A'             
     e(  7 -  7) =     18.29518  eV     1   --> A'             
     e(  8 -  8) =     35.45362  eV     1   --> A'             
     e(  9 -  9) =     36.23928  eV     1   --> A''            
     e( 10 - 10) =     36.26724  eV     1   --> A'             
     e( 11 - 11) =     40.17878  eV     1   --> A''            

 **************************************************************************

 **************************************************************************

                    xk=(   0.45000,   0.60000,   0.45000  )

     Band symmetry, C_s (m)     point group:

     e(  1 -  1) =      9.38169  eV     1   --> A'             
     e(  2 -  2) =     11.27975  eV     1   --> A'             
     e(  3 -  3) =     11.41717  eV     1   --> A''            
     e(  4 -  4) =     12.24125  eV     1   --> A'             
     e(  5 -  5) =     12.82519  eV     1   --> A''            
     e(  6 -  6) =     14.18478  eV     1   --> A'             
     e(  7 -  7) =     18.32983  eV     1   --> A'             
     e(  8 -  8) =     33.92551  eV     1   --> A'             
     e(  9 -  9) =     35.46336  eV     1   --> A''            
     e( 10 - 10) =     36.01849  eV     1   --> A'             
     e( 11 - 11) =     41.12448  eV     1   --> A''            

 **************************************************************************

 **************************************************************************

                    xk=(   0.42500,   0.65000,   0.42500  )

     Band symmetry, C_s (m)     point group:

     e(  1 -  1) =      9.51415  eV     1   --> A'             
     e(  2 -  2) =     11.19013  eV     1   --> A'             
     e(  3 -  3) =     11.49643  eV     1   --> A''            
     e(  4 -  4) =     11.92131  eV     1   --> A'             
     e(  5 -  5) =     12.81352  eV     1   --> A''            
     e(  6 -  6) =     14.75582  eV     1   --> A'             
     e(  7 -  7) =     18.39146  eV     1   --> A'             
     e(  8 -  8) =     32.18793  eV     1   --> A'             
     e(  9 -  9) =     34.57945  eV     1   --> A''            
     e( 10 - 10) =     35.74739  eV     1   --> A'             
     e( 11 - 11) =     42.29181  eV     1   --> A''            

 **************************************************************************

 **************************************************************************

                    xk=(   0.40000,   0.70000,   0.40000  )

     Band symmetry, C_s (m)     point group:

     e(  1 -  1) =      9.68417  eV     1   --> A'             
     e(  2 -  2) =     11.06577  eV     1   --> A'             
     e(  3 -  3) =     11.60268  eV     1   --> A''            
     e(  4 -  4) =     11.65942  eV     1   --> A'             
     e(  5 -  5) =     12.79843  eV     1   --> A''            
     e(  6 -  6) =     15.37805  eV     1   --> A'             
     e(  7 -  7) =     18.48567  eV     1   --> A'             
     e(  8 -  8) =     30.42722  eV     1   --> A'             
     e(  9 -  9) =     33.69453  eV     1   --> A''            
     e( 10 - 10) =     35.44914  eV     1   --> A'             
     e( 11 - 11) =     43.57399  eV     1   --> A''            

 **************************************************************************

 **************************************************************************

                    xk=(   0.37500,   0.75000,   0.37500  )

     Band symmetry, C_s (m)     point group:

     e(  1 -  1) =      9.87311  eV     1   --> A'             
     e(  2 -  2) =     10.91263  eV     1   --> A'             
     e(  3 -  3) =     11.46691  eV     1   --> A'             
     e(  4 -  4) =     11.73099  eV     1   --> A''            
     e(  5 -  5) =     12.78123  eV     1   --> A''            
     e(  6 -  6) =     16.04590  eV     1   --> A'             
     e(  7 -  7) =     18.61938  eV     1   --> A'             
     e(  8 -  8) =     28.69854  eV     1   --> A'             
     e(  9 -  9) =     32.84720  eV     1   --> A''            
     e( 10 - 10) =     35.14811  eV     1   --> A'             
     e( 11 - 11) =     44.93138  eV     1   --> A''            

 **************************************************************************

 **************************************************************************

                    xk=(   0.35000,   0.80000,   0.35000  )

     Band symmetry, C_s (m)     point group:

     e(  1 -  1) =     10.05150  eV     1   --> A'             
     e(  2 -  2) =     10.74713  eV     1   --> A'             
     e(  3 -  3) =     11.35031  eV     1   --> A'             
     e(  4 -  4) =     11.87474  eV     1   --> A''            
     e(  5 -  5) =     12.76377  eV     1   --> A''            
     e(  6 -  6) =     16.75504  eV     1   --> A'             
     e(  7 -  7) =     18.79917  eV     1   --> A'             
     e(  8 -  8) =     27.03281  eV     1   --> A'             
     e(  9 -  9) =     32.05631  eV     1   --> A''            
     e( 10 - 10) =     34.86207  eV     1   --> A'             
     e( 11 - 11) =     46.34047  eV     1   --> A''            

 **************************************************************************

 **************************************************************************

                    xk=(   0.32500,   0.85000,   0.32500  )

     Band symmetry, C_s (m)     point group:

     e(  1 -  1) =     10.17777  eV     1   --> A'             
     e(  2 -  2) =     10.59108  eV     1   --> A'             
     e(  3 -  3) =     11.31944  eV     1   --> A'             
     e(  4 -  4) =     12.02518  eV     1   --> A''            
     e(  5 -  5) =     12.74884  eV     1   --> A''            
     e(  6 -  6) =     17.49787  eV     1   --> A'             
     e(  7 -  7) =     19.02697  eV     1   --> A'             
     e(  8 -  8) =     25.46238  eV     1   --> A'             
     e(  9 -  9) =     31.33447  eV     1   --> A''            
     e( 10 - 10) =     34.60170  eV     1   --> A'             
     e( 11 - 11) =     47.39105  eV     1   --> A'             

 **************************************************************************

 **************************************************************************

                    xk=(   0.30000,   0.90000,   0.30000  )

     Band symmetry, C_s (m)     point group:

     e(  1 -  1) =     10.21469  eV     1   --> A'             
     e(  2 -  2) =     10.46462  eV     1   --> A'             
     e(  3 -  3) =     11.37911  eV     1   --> A'             
     e(  4 -  4) =     12.17075  eV     1   --> A''            
     e(  5 -  5) =     12.74088  eV     1   --> A''            
     e(  6 -  6) =     18.24997  eV     1   --> A'             
     e(  7 -  7) =     19.29324  eV     1   --> A'             
     e(  8 -  8) =     24.04554  eV     1   --> A'             
     e(  9 -  9) =     30.69233  eV     1   --> A''            
     e( 10 - 10) =     34.37293  eV     1   --> A'             
     e( 11 - 11) =     46.26689  eV     1   --> A'             

 **************************************************************************

 **************************************************************************

                    xk=(   0.27500,   0.95000,   0.27500  )

     Band symmetry, C_s (m)     point group:

     e(  1 -  1) =     10.16652  eV     1   --> A'             
     e(  2 -  2) =     10.37706  eV     1   --> A'             
     e(  3 -  3) =     11.50267  eV     1   --> A'             
     e(  4 -  4) =     12.29623  eV     1   --> A''            
     e(  5 -  5) =     12.74703  eV     1   --> A''            
     e(  6 -  6) =     18.86674  eV     1   --> A'             
     e(  7 -  7) =     19.62191  eV     1   --> A'             
     e(  8 -  8) =     22.92520  eV     1   --> A'             
     e(  9 -  9) =     30.14005  eV     1   --> A''            
     e( 10 - 10) =     34.17889  eV     1   --> A'             
     e( 11 - 11) =     44.91326  eV     1   --> A'             

 **************************************************************************

 **************************************************************************

                    xk=(   0.25000,   1.00000,   0.25000  )

     point group C_2v (mm2) 
     there are  4 classes
     the character table:

       E     C2    s_v   s_v' 
A_1    1.00  1.00  1.00  1.00
A_2    1.00  1.00 -1.00 -1.00
B_1    1.00 -1.00  1.00 -1.00
B_2    1.00 -1.00 -1.00  1.00

     the symmetry operations in each class and the name of the first element:

     E        1
                                                                 
     C2       2
                                                                 
     s_v      3
                                                                 
     s_v'     4
                                                                 

     Band symmetry, C_2v (mm2)  point group:

     e(  1 -  1) =     10.08077  eV     1   --> A_1  D_1  S_1  
     e(  2 -  2) =     10.31343  eV     1   --> A_1  D_1  S_1  
     e(  3 -  3) =     11.64550  eV     1   --> B_2  D_4  S_4  
     e(  4 -  4) =     12.38501  eV     1   --> B_1  D_3  S_3  
     e(  5 -  5) =     12.77527  eV     1   --> A_2  D_2  S_2  
     e(  6 -  6) =     18.82490  eV     1   --> B_2  D_4  S_4  
     e(  7 -  7) =     20.26142  eV     1   --> A_1  D_1  S_1  
     e(  8 -  8) =     22.39534  eV     1   --> A_1  D_1  S_1  
     e(  9 -  9) =     29.68760  eV     1   --> B_1  D_3  S_3  
     e( 10 - 10) =     34.02099  eV     1   --> A_1  D_1  S_1  
     e( 11 - 11) =     43.58758  eV     1   --> A_1  D_1  S_1  

 **************************************************************************

 **************************************************************************

                    xk=(   0.27500,   1.00000,   0.22500  )

     point group C_s (m)    
     there are  2 classes
     the character table:

       E     s    
A'     1.00  1.00
A''    1.00 -1.00

     the symmetry operations in each class and the name of the first element:

     E        1
                                                                 
     s        2
                                                                 

     Band symmetry, C_s (m)     point group:

     e(  1 -  1) =     10.08596  eV     1   --> A'             
     e(  2 -  2) =     10.31786  eV     1   --> A'             
     e(  3 -  3) =     11.63117  eV     1   --> A''            
     e(  4 -  4) =     12.38095  eV     1   --> A'             
     e(  5 -  5) =     12.78236  eV     1   --> A''            
     e(  6 -  6) =     18.84529  eV     1   --> A''            
     e(  7 -  7) =     20.27674  eV     1   --> A'             
     e(  8 -  8) =     22.40149  eV     1   --> A'             
     e(  9 -  9) =     29.44574  eV     1   --> A'             
     e( 10 - 10) =     34.28481  eV     1   --> A'             
     e( 11 - 11) =     43.59729  eV     1   --> A'             

 **************************************************************************

 **************************************************************************

                    xk=(   0.30000,   1.00000,   0.20000  )

     Band symmetry, C_s (m)     point group:

     e(  1 -  1) =     10.10080  eV     1   --> A'             
     e(  2 -  2) =     10.33161  eV     1   --> A'             
     e(  3 -  3) =     11.58999  eV     1   --> A''            
     e(  4 -  4) =     12.36909  eV     1   --> A'             
     e(  5 -  5) =     12.80207  eV     1   --> A''            
     e(  6 -  6) =     18.90627  eV     1   --> A''            
     e(  7 -  7) =     20.32220  eV     1   --> A'             
     e(  8 -  8) =     22.42003  eV     1   --> A'             
     e(  9 -  9) =     28.84468  eV     1   --> A'             
     e( 10 - 10) =     34.95167  eV     1   --> A'             
     e( 11 - 11) =     43.62612  eV     1   --> A'             

 **************************************************************************

 **************************************************************************

                    xk=(   0.32500,   1.00000,   0.17500  )

     Band symmetry, C_s (m)     point group:

     e(  1 -  1) =     10.12305  eV     1   --> A'             
     e(  2 -  2) =     10.35599  eV     1   --> A'             
     e(  3 -  3) =     11.52645  eV     1   --> A''            
     e(  4 -  4) =     12.35037  eV     1   --> A'             
     e(  5 -  5) =     12.83049  eV     1   --> A''            
     e(  6 -  6) =     19.00722  eV     1   --> A''            
     e(  7 -  7) =     20.39625  eV     1   --> A'             
     e(  8 -  8) =     22.45128  eV     1   --> A'             
     e(  9 -  9) =     28.07038  eV     1   --> A'             
     e( 10 - 10) =     35.83551  eV     1   --> A'             
     e( 11 - 11) =     43.67318  eV     1   --> A'             

 **************************************************************************

 **************************************************************************

                    xk=(   0.35000,   1.00000,   0.15000  )

     Band symmetry, C_s (m)     point group:

     e(  1 -  1) =     10.14929  eV     1   --> A'             
     e(  2 -  2) =     10.39283  eV     1   --> A'             
     e(  3 -  3) =     11.44613  eV     1   --> A''            
     e(  4 -  4) =     12.32630  eV     1   --> A'             
     e(  5 -  5) =     12.86299  eV     1   --> A''            
     e(  6 -  6) =     19.14719  eV     1   --> A''            
     e(  7 -  7) =     20.49601  eV     1   --> A'             
     e(  8 -  8) =     22.49575  eV     1   --> A'             
     e(  9 -  9) =     27.22862  eV     1   --> A'             
     e( 10 - 10) =     36.83047  eV     1   --> A'             
     e( 11 - 11) =     43.73668  eV     1   --> A'             

 **************************************************************************

 **************************************************************************

                    xk=(   0.37500,   1.00000,   0.12500  )

     Band symmetry, C_s (m)     point group:

     e(  1 -  1) =     10.17583  eV     1   --> A'             
     e(  2 -  2) =     10.44366  eV     1   --> A'             
     e(  3 -  3) =     11.35439  eV     1   --> A''            
     e(  4 -  4) =     12.29887  eV     1   --> A'             
     e(  5 -  5) =     12.89548  eV     1   --> A''            
     e(  6 -  6) =     19.32492  eV     1   --> A''            
     e(  7 -  7) =     20.61662  eV     1   --> A'             
     e(  8 -  8) =     22.55407  eV     1   --> A'             
     e(  9 -  9) =     26.37075  eV     1   --> A'             
     e( 10 - 10) =     37.88545  eV     1   --> A'             
     e( 11 - 11) =     43.81344  eV     1   --> A'             

 **************************************************************************

 **************************************************************************

                    xk=(   0.40000,   1.00000,   0.10000  )

     Band symmetry, C_s (m)     point group:

     e(  1 -  1) =     10.19986  eV     1   --> A'             
     e(  2 -  2) =     10.50847  eV     1   --> A'             
     e(  3 -  3) =     11.25578  eV     1   --> A''            
     e(  4 -  4) =     12.27049  eV     1   --> A'             
     e(  5 -  5) =     12.92491  eV     1   --> A''            
     e(  6 -  6) =     19.53890  eV     1   --> A''            
     e(  7 -  7) =     20.74959  eV     1   --> A'             
     e(  8 -  8) =     22.62690  eV     1   --> A'             
     e(  9 -  9) =     25.52696  eV     1   --> A'             
     e( 10 - 10) =     38.97177  eV     1   --> A'             
     e( 11 - 11) =     43.89787  eV     1   --> A'             

 **************************************************************************

 **************************************************************************

                    xk=(   0.42500,   1.00000,   0.07500  )

     Band symmetry, C_s (m)     point group:

     e(  1 -  1) =     10.21985  eV     1   --> A'             
     e(  2 -  2) =     10.58544  eV     1   --> A'             
     e(  3 -  3) =     11.15400  eV     1   --> A''            
     e(  4 -  4) =     12.24381  eV     1   --> A'             
     e(  5 -  5) =     12.94922  eV     1   --> A''            
     e(  6 -  6) =     19.78750  eV     1   --> A''            
     e(  7 -  7) =     20.87877  eV     1   --> A'             
     e(  8 -  8) =     22.71451  eV     1   --> A'             
     e(  9 -  9) =     24.72494  eV     1   --> A'             
     e( 10 - 10) =     40.06726  eV     1   --> A'             
     e( 11 - 11) =     43.98018  eV     1   --> A'             

 **************************************************************************

 **************************************************************************

                    xk=(   0.45000,   1.00000,   0.05000  )

     Band symmetry, C_s (m)     point group:

     e(  1 -  1) =     10.23501  eV     1   --> A'             
     e(  2 -  2) =     10.67145  eV     1   --> A'             
     e(  3 -  3) =     11.05200  eV     1   --> A''            
     e(  4 -  4) =     12.22163  eV     1   --> A'             
     e(  5 -  5) =     12.96715  eV     1   --> A''            
     e(  6 -  6) =     20.06899  eV     1   --> A''            
     e(  7 -  7) =     20.97030  eV     1   --> A'             
     e(  8 -  8) =     22.81524  eV     1   --> A'             
     e(  9 -  9) =     24.00727  eV     1   --> A'             
     e( 10 - 10) =     41.14699  eV     1   --> A'             
     e( 11 - 11) =     44.04384  eV     1   --> A'             

 **************************************************************************

 **************************************************************************

                    xk=(   0.47500,   1.00000,   0.02500  )

     Band symmetry, C_s (m)     point group:

     e(  1 -  1) =     10.24468  eV     1   --> A'             
     e(  2 -  2) =     10.76295  eV     1   --> A'             
     e(  3 -  3) =     10.95216  eV     1   --> A''            
     e(  4 -  4) =     12.20664  eV     1   --> A'             
     e(  5 -  5) =     12.97805  eV     1   --> A''            
     e(  6 -  6) =     20.38168  eV     1   --> A''            
     e(  7 -  7) =     20.95310  eV     1   --> A'             
     e(  8 -  8) =     22.91706  eV     1   --> A'             
     e(  9 -  9) =     23.46200  eV     1   --> A'             
     e( 10 - 10) =     42.17282  eV     1   --> A'             
     e( 11 - 11) =     43.82150  eV     1   --> A''            

 **************************************************************************

 **************************************************************************

                    xk=(   0.50000,   1.00000,   0.00000  )

     point group D_2d (-42m)
     there are  5 classes
     the character table:

       E     2S4   C2    2C2'  2s_d 
A_1    1.00  1.00  1.00  1.00  1.00
A_2    1.00  1.00  1.00 -1.00 -1.00
B_1    1.00 -1.00  1.00  1.00 -1.00
B_2    1.00 -1.00  1.00 -1.00  1.00
E      2.00  0.00 -2.00  0.00  0.00

     the symmetry operations in each class and the name of the first element:

     E        1
                                                                 
     2S4      7    8
                                                                 
     C2       2
                                                                 
     2C2'     3    4
                                                                 
     2s_d     5    6
                                                                 

     Band symmetry, D_2d (-42m) point group:

     e(  1 -  1) =     10.24809  eV     1   --> B_2  X_3  W_2  
     e(  2 -  3) =     10.85635  eV     2   --> E    X_5  W_3  
     e(  4 -  4) =     12.20122  eV     1   --> A_1  X_1  W_1  
     e(  5 -  5) =     12.98169  eV     1   --> B_1  X_2  W_1' 
     e(  6 -  7) =     20.72391  eV     2   --> E    X_5  W_3  
     e(  8 -  8) =     22.95948  eV     1   --> B_2  X_3  W_2  
     e(  9 -  9) =     23.25678  eV     1   --> A_1  X_1  W_1  
     e( 10 - 11) =     43.06009  eV     2   --> E    X_5  W_3  

 **************************************************************************

 **************************************************************************

                    xk=(   0.50000,   0.95000,   0.05000  )

     point group C_2  (2)   
     there are  2 classes
     the character table:

       E     C2   
A      1.00  1.00
B      1.00 -1.00

     the symmetry operations in each class and the name of the first element:

     E        1
                                                                 
     C2       2
                                                                 

     Band symmetry, C_2  (2)    point group:

     e(  1 -  1) =     10.27073  eV     1   --> B              
     e(  2 -  2) =     10.81496  eV     1   --> A              
     e(  3 -  3) =     10.87562  eV     1   --> B              
     e(  4 -  4) =     12.20077  eV     1   --> A              
     e(  5 -  5) =     12.95398  eV     1   --> A              
     e(  6 -  6) =     20.23769  eV     1   --> B              
     e(  7 -  7) =     20.44719  eV     1   --> A              
[...]
     e(  3 -  3) =     11.60268  eV     1   --> A''            
     e(  4 -  4) =     11.65942  eV     1   --> A'             
     e(  5 -  5) =     12.79843  eV     1   --> A''            
     e(  6 -  6) =     15.37805  eV     1   --> A'             
     e(  7 -  7) =     18.48567  eV     1   --> A'             
     e(  8 -  8) =     30.42722  eV     1   --> A'             
     e(  9 -  9) =     33.69453  eV     1   --> A''            
     e( 10 - 10) =     35.44914  eV     1   --> A'             
     e( 11 - 11) =     43.57399  eV     1   --> A''            

 **************************************************************************

 **************************************************************************

                    xk=(   0.62500,   0.62500,   0.25000  )

     Band symmetry, C_s (m)     point group:

     e(  1 -  1) =      9.87311  eV     1   --> A'             
     e(  2 -  2) =     10.91263  eV     1   --> A'             
     e(  3 -  3) =     11.46691  eV     1   --> A'             
     e(  4 -  4) =     11.73099  eV     1   --> A''            
     e(  5 -  5) =     12.78123  eV     1   --> A''            
     e(  6 -  6) =     16.04590  eV     1   --> A'             
     e(  7 -  7) =     18.61938  eV     1   --> A'             
     e(  8 -  8) =     28.69854  eV     1   --> A'             
     e(  9 -  9) =     32.84720  eV     1   --> A''            
     e( 10 - 10) =     35.14811  eV     1   --> A'             
     e( 11 - 11) =     44.93138  eV     1   --> A''            

 **************************************************************************

 **************************************************************************

                    xk=(   0.65000,   0.65000,   0.20000  )

     Band symmetry, C_s (m)     point group:

     e(  1 -  1) =     10.05150  eV     1   --> A'             
     e(  2 -  2) =     10.74713  eV     1   --> A'             
     e(  3 -  3) =     11.35031  eV     1   --> A'             
     e(  4 -  4) =     11.87474  eV     1   --> A''            
     e(  5 -  5) =     12.76377  eV     1   --> A''            
     e(  6 -  6) =     16.75504  eV     1   --> A'             
     e(  7 -  7) =     18.79917  eV     1   --> A'             
     e(  8 -  8) =     27.03281  eV     1   --> A'             
     e(  9 -  9) =     32.05631  eV     1   --> A''            
     e( 10 - 10) =     34.86207  eV     1   --> A'             
     e( 11 - 11) =     46.34047  eV     1   --> A''            

 **************************************************************************

 **************************************************************************

                    xk=(   0.67500,   0.67500,   0.15000  )

     Band symmetry, C_s (m)     point group:

     e(  1 -  1) =     10.17777  eV     1   --> A'             
     e(  2 -  2) =     10.59108  eV     1   --> A'             
     e(  3 -  3) =     11.31944  eV     1   --> A'             
     e(  4 -  4) =     12.02518  eV     1   --> A''            
     e(  5 -  5) =     12.74884  eV     1   --> A''            
     e(  6 -  6) =     17.49787  eV     1   --> A'             
     e(  7 -  7) =     19.02697  eV     1   --> A'             
     e(  8 -  8) =     25.46238  eV     1   --> A'             
     e(  9 -  9) =     31.33447  eV     1   --> A''            
     e( 10 - 10) =     34.60170  eV     1   --> A'             
     e( 11 - 11) =     47.39105  eV     1   --> A'             

 **************************************************************************

 **************************************************************************

                    xk=(   0.70000,   0.70000,   0.10000  )

     Band symmetry, C_s (m)     point group:

     e(  1 -  1) =     10.21469  eV     1   --> A'             
     e(  2 -  2) =     10.46462  eV     1   --> A'             
     e(  3 -  3) =     11.37911  eV     1   --> A'             
     e(  4 -  4) =     12.17075  eV     1   --> A''            
     e(  5 -  5) =     12.74088  eV     1   --> A''            
     e(  6 -  6) =     18.24997  eV     1   --> A'             
     e(  7 -  7) =     19.29324  eV     1   --> A'             
     e(  8 -  8) =     24.04554  eV     1   --> A'             
     e(  9 -  9) =     30.69233  eV     1   --> A''            
     e( 10 - 10) =     34.37293  eV     1   --> A'             
     e( 11 - 11) =     46.26689  eV     1   --> A'             

 **************************************************************************

 **************************************************************************

                    xk=(   0.72500,   0.72500,   0.05000  )

     Band symmetry, C_s (m)     point group:

     e(  1 -  1) =     10.16652  eV     1   --> A'             
     e(  2 -  2) =     10.37706  eV     1   --> A'             
     e(  3 -  3) =     11.50267  eV     1   --> A'             
     e(  4 -  4) =     12.29623  eV     1   --> A''            
     e(  5 -  5) =     12.74703  eV     1   --> A''            
     e(  6 -  6) =     18.86674  eV     1   --> A'             
     e(  7 -  7) =     19.62191  eV     1   --> A'             
     e(  8 -  8) =     22.92520  eV     1   --> A'             
     e(  9 -  9) =     30.14005  eV     1   --> A''            
     e( 10 - 10) =     34.17889  eV     1   --> A'             
     e( 11 - 11) =     44.91326  eV     1   --> A'             

 **************************************************************************

 **************************************************************************

                    xk=(   0.75000,   0.75000,   0.00000  )

     point group C_2v (mm2) 
     there are  4 classes
     the character table:

       E     C2    s_v   s_v' 
A_1    1.00  1.00  1.00  1.00
A_2    1.00  1.00 -1.00 -1.00
B_1    1.00 -1.00  1.00 -1.00
B_2    1.00 -1.00 -1.00  1.00

     the symmetry operations in each class and the name of the first element:

     E        1
                                                                 
     C2       2
                                                                 
     s_v      3
                                                                 
     s_v'     4
                                                                 

     Band symmetry, C_2v (mm2)  point group:

     e(  1 -  1) =     10.08077  eV     1   --> A_1  D_1  S_1  
     e(  2 -  2) =     10.31343  eV     1   --> A_1  D_1  S_1  
     e(  3 -  3) =     11.64550  eV     1   --> B_2  D_4  S_4  
     e(  4 -  4) =     12.38501  eV     1   --> B_1  D_3  S_3  
     e(  5 -  5) =     12.77527  eV     1   --> A_2  D_2  S_2  
     e(  6 -  6) =     18.82490  eV     1   --> B_2  D_4  S_4  
     e(  7 -  7) =     20.26142  eV     1   --> A_1  D_1  S_1  
     e(  8 -  8) =     22.39534  eV     1   --> A_1  D_1  S_1  
     e(  9 -  9) =     29.68760  eV     1   --> B_1  D_3  S_3  
     e( 10 - 10) =     34.02099  eV     1   --> A_1  D_1  S_1  
     e( 11 - 11) =     43.58758  eV     1   --> A_1  D_1  S_1  

 **************************************************************************

 **************************************************************************

                    xk=(   0.25000,   1.00000,   0.25000  )

     Band symmetry, C_2v (mm2)  point group:

     e(  1 -  1) =     10.08077  eV     1   --> A_1  D_1  S_1  
     e(  2 -  2) =     10.31343  eV     1   --> A_1  D_1  S_1  
     e(  3 -  3) =     11.64550  eV     1   --> B_2  D_4  S_4  
     e(  4 -  4) =     12.38501  eV     1   --> B_1  D_3  S_3  
     e(  5 -  5) =     12.77527  eV     1   --> A_2  D_2  S_2  
     e(  6 -  6) =     18.82490  eV     1   --> B_2  D_4  S_4  
     e(  7 -  7) =     20.26142  eV     1   --> A_1  D_1  S_1  
     e(  8 -  8) =     22.39534  eV     1   --> A_1  D_1  S_1  
     e(  9 -  9) =     29.68760  eV     1   --> B_1  D_3  S_3  
     e( 10 - 10) =     34.02099  eV     1   --> A_1  D_1  S_1  
     e( 11 - 11) =     43.58758  eV     1   --> A_1  D_1  S_1  

 **************************************************************************

 **************************************************************************

                    xk=(   0.22500,   0.90000,   0.22500  )

     point group C_s (m)    
     there are  2 classes
     the character table:

       E     s    
A'     1.00  1.00
A''    1.00 -1.00

     the symmetry operations in each class and the name of the first element:

     E        1
                                                                 
     s        2
                                                                 

     Band symmetry, C_s (m)     point group:

     e(  1 -  1) =      9.99090  eV     1   --> A'             
     e(  2 -  2) =     10.28497  eV     1   --> A'             
     e(  3 -  3) =     11.72682  eV     1   --> A'             
     e(  4 -  4) =     12.37668  eV     1   --> A''            
     e(  5 -  5) =     12.84459  eV     1   --> A''            
     e(  6 -  6) =     17.43401  eV     1   --> A'             
     e(  7 -  7) =     21.27505  eV     1   --> A'             
     e(  8 -  8) =     23.38932  eV     1   --> A'             
     e(  9 -  9) =     29.46324  eV     1   --> A''            
     e( 10 - 10) =     33.93594  eV     1   --> A'             
     e( 11 - 11) =     42.38003  eV     1   --> A'             

 **************************************************************************

 **************************************************************************

                    xk=(   0.20000,   0.80000,   0.20000  )

     Band symmetry, C_s (m)     point group:

     e(  1 -  1) =      9.87489  eV     1   --> A'             
     e(  2 -  2) =     10.31727  eV     1   --> A'             
     e(  3 -  3) =     11.67565  eV     1   --> A'             
     e(  4 -  4) =     12.28755  eV     1   --> A''            
     e(  5 -  5) =     12.89205  eV     1   --> A''            
     e(  6 -  6) =     15.58925  eV     1   --> A'             
     e(  7 -  7) =     22.54632  eV     1   --> A'             
     e(  8 -  8) =     25.46596  eV     1   --> A'             
     e(  9 -  9) =     29.60089  eV     1   --> A''            
     e( 10 - 10) =     33.96968  eV     1   --> A'             
     e( 11 - 11) =     41.36692  eV     1   --> A'             

 **************************************************************************

 **************************************************************************

                    xk=(   0.17500,   0.70000,   0.17500  )

     Band symmetry, C_s (m)     point group:

     e(  1 -  1) =      9.60618  eV     1   --> A'             
     e(  2 -  2) =     10.40298  eV     1   --> A'             
     e(  3 -  3) =     11.53755  eV     1   --> A'             
     e(  4 -  4) =     12.17476  eV     1   --> A''            
     e(  5 -  5) =     12.85996  eV     1   --> A''            
     e(  6 -  6) =     14.04857  eV     1   --> A'             
     e(  7 -  7) =     24.08336  eV     1   --> A'             
     e(  8 -  8) =     27.93676  eV     1   --> A'             
     e(  9 -  9) =     30.10168  eV     1   --> A''            
     e( 10 - 10) =     34.14258  eV     1   --> A'             
     e( 11 - 11) =     40.56555  eV     1   --> A'             

 **************************************************************************

 **************************************************************************

                    xk=(   0.15000,   0.60000,   0.15000  )

     Band symmetry, C_s (m)     point group:

     e(  1 -  1) =      8.97977  eV     1   --> A'             
     e(  2 -  2) =     10.53005  eV     1   --> A'             
     e(  3 -  3) =     11.45623  eV     1   --> A'             
     e(  4 -  4) =     12.05322  eV     1   --> A''            
     e(  5 -  5) =     12.75426  eV     1   --> A''            
     e(  6 -  6) =     13.01628  eV     1   --> A'             
     e(  7 -  7) =     25.87076  eV     1   --> A'             
     e(  8 -  8) =     30.64201  eV     1   --> A'             
     e(  9 -  9) =     30.94360  eV     1   --> A''            
     e( 10 - 10) =     34.48900  eV     1   --> A'             
     e( 11 - 11) =     39.99239  eV     1   --> A'             

 **************************************************************************

 **************************************************************************

                    xk=(   0.12500,   0.50000,   0.12500  )

     Band symmetry, C_s (m)     point group:

     e(  1 -  1) =      8.02875  eV     1   --> A'             
     e(  2 -  2) =     10.69380  eV     1   --> A'             
     e(  3 -  3) =     11.51478  eV     1   --> A'             
     e(  4 -  4) =     11.92308  eV     1   --> A''            
     e(  5 -  5) =     12.41823  eV     1   --> A'             
     e(  6 -  6) =     12.61003  eV     1   --> A''            
     e(  7 -  7) =     27.88187  eV     1   --> A'             
     e(  8 -  8) =     32.08778  eV     1   --> A''            
     e(  9 -  9) =     33.39647  eV     1   --> A'             
     e( 10 - 10) =     35.13610  eV     1   --> A'             
     e( 11 - 11) =     39.67629  eV     1   --> A'             

 **************************************************************************

 **************************************************************************

                    xk=(   0.10000,   0.40000,   0.10000  )

     Band symmetry, C_s (m)     point group:

     e(  1 -  1) =      7.02022  eV     1   --> A'             
     e(  2 -  2) =     10.88196  eV     1   --> A'             
     e(  3 -  3) =     11.62905  eV     1   --> A'             
     e(  4 -  4) =     11.78124  eV     1   --> A''            
     e(  5 -  5) =     12.08600  eV     1   --> A'             
     e(  6 -  6) =     12.46968  eV     1   --> A''            
     e(  7 -  7) =     30.09062  eV     1   --> A'             
     e(  8 -  8) =     33.48799  eV     1   --> A''            
     e(  9 -  9) =     35.18688  eV     1   --> A'             
     e( 10 - 10) =     36.93488  eV     1   --> A'             
     e( 11 - 11) =     39.74647  eV     1   --> A'             

 **************************************************************************

 **************************************************************************

                    xk=(   0.07500,   0.30000,   0.07500  )

     Band symmetry, C_s (m)     point group:

     e(  1 -  1) =      6.14098  eV     1   --> A'             
     e(  2 -  2) =     11.07085  eV     1   --> A'             
     e(  3 -  3) =     11.62015  eV     1   --> A'             
     e(  4 -  4) =     11.63405  eV     1   --> A''            
     e(  5 -  5) =     12.01884  eV     1   --> A'             
     e(  6 -  6) =     12.36208  eV     1   --> A''            
     e(  7 -  7) =     32.46250  eV     1   --> A'             
     e(  8 -  8) =     35.09708  eV     1   --> A''            
     e(  9 -  9) =     36.14668  eV     1   --> A'             
     e( 10 - 10) =     38.73442  eV     1   --> A'             
     e( 11 - 11) =     41.13501  eV     1   --> A'             

 **************************************************************************

 **************************************************************************

                    xk=(   0.05000,   0.20000,   0.05000  )

     Band symmetry, C_s (m)     point group:

     e(  1 -  1) =      5.47702  eV     1   --> A'             
     e(  2 -  2) =     11.23254  eV     1   --> A'             
     e(  3 -  3) =     11.50053  eV     1   --> A'             
     e(  4 -  4) =     11.50264  eV     1   --> A''            
     e(  5 -  5) =     12.12084  eV     1   --> A'             
     e(  6 -  6) =     12.29332  eV     1   --> A''            
     e(  7 -  7) =     34.90681  eV     1   --> A'             
     e(  8 -  8) =     36.86407  eV     1   --> A''            
     e(  9 -  9) =     37.14281  eV     1   --> A'             
     e( 10 - 10) =     39.29178  eV     1   --> A'             
     e( 11 - 11) =     43.53261  eV     1   --> A'             

 **************************************************************************

 **************************************************************************

                    xk=(   0.02500,   0.10000,   0.02500  )

     Band symmetry, C_s (m)     point group:

     e(  1 -  1) =      5.06723  eV     1   --> A'             
     e(  2 -  2) =     11.34150  eV     1   --> A'             
     e(  3 -  3) =     11.41107  eV     1   --> A'             
     e(  4 -  4) =     11.41212  eV     1   --> A''            
     e(  5 -  5) =     12.21196  eV     1   --> A'             
     e(  6 -  6) =     12.25680  eV     1   --> A''            
     e(  7 -  7) =     36.94854  eV     1   --> A'             
     e(  8 -  8) =     38.46383  eV     1   --> A'             
     e(  9 -  9) =     38.69176  eV     1   --> A''            
     e( 10 - 10) =     39.68417  eV     1   --> A'             
     e( 11 - 11) =     42.83308  eV     1   --> A'             

 **************************************************************************

 **************************************************************************

                    xk=(   0.00000,   0.00000,   0.00000  )

     point group O_h (m-3m) 
     there are 10 classes
     the character table:

       E     8C3   3C2   6C4   6C2'  i     8S6   3s_h  6S4   6s_d 
A_1g   1.00  1.00  1.00  1.00  1.00  1.00  1.00  1.00  1.00  1.00
A_2g   1.00  1.00  1.00 -1.00 -1.00  1.00  1.00  1.00 -1.00 -1.00
E_g    2.00 -1.00  2.00  0.00  0.00  2.00 -1.00  2.00  0.00  0.00
T_1g   3.00  0.00 -1.00  1.00 -1.00  3.00  0.00 -1.00  1.00 -1.00
T_2g   3.00  0.00 -1.00 -1.00  1.00  3.00  0.00 -1.00 -1.00  1.00
A_1u   1.00  1.00  1.00  1.00  1.00 -1.00 -1.00 -1.00 -1.00 -1.00
A_2u   1.00  1.00  1.00 -1.00 -1.00 -1.00 -1.00 -1.00  1.00  1.00
E_u    2.00 -1.00  2.00  0.00  0.00 -2.00  1.00 -2.00  0.00  0.00
T_1u   3.00  0.00 -1.00  1.00 -1.00 -3.00  0.00  1.00 -1.00  1.00
T_2u   3.00  0.00 -1.00 -1.00  1.00 -3.00  0.00  1.00  1.00 -1.00

     the symmetry operations in each class and the name of the first element:

     E        1
                                                                 
     8C3     17   19   20   18   24   21   22   23
                                                                 
     3C2      2    4    3
                                                                 
     6C4      7    8   15   16   12   11
                                                                 
     6C2'     5    6   14   13   10    9
                                                                 
     i       25
                                                                 
     8S6     41   43   44   42   48   45   46   47
                                                                 
     3s_h    26   28   27
                                                                 
     6S4     31   32   39   40   36   35
                                                                 
     6s_d    29   30   38   37   34   33
                                                                 

     Band symmetry, O_h (m-3m)  point group:

     e(  1 -  1) =      4.92896  eV     1   --> A_1g G_1   G_1+
     e(  2 -  4) =     11.37995  eV     3   --> T_2g G_25' G_5+
     e(  5 -  6) =     12.24550  eV     2   --> E_g  G_12  G_3+
     e(  7 -  7) =     37.60533  eV     1   --> A_2u G_2'  G_2-
     e(  8 - 10) =     39.90308  eV     3   --> T_1u G_15  G_4-
     e( 11 - 11) =     42.35507  eV     1   -->   ?

 **************************************************************************

     BANDS        :     14.04s CPU     15.98s WALL


   This run was terminated on:   8:33:41  19Feb2020            

=------------------------------------------------------------------------------=
   JOB DONE.
=------------------------------------------------------------------------------=
