<UPF version="2.0.1">
<PP_INFO>
Generated by new atomic code, or converted to UPF format
Author:
Generation date:
Pseudopotential type: US
Element: Cu
Functional:  SLA  PZ   NOGX NOGC
Suggested minimum cutoff for wavefunctions:   0. Ry
Suggested minimum cutoff for charge density:   0. Ry
The Pseudo was generated with a Scalar-Relativistic Calculation
L component and cutoff radius for Local Potential:  0   0.0000
Valence configuration:
nl pn  l   occ       Rcut    Rcut US       E pseu
3D  0  2  9.50     10.000      2.000     0.000000
4S  0  0  1.00     10.000      2.100     0.000000
4P  0  1  0.50     10.000      2.200     0.000000
Generation configuration: not available.
</PP_INFO>
<!--
END OF HUMAN READABLE SECTION
-->
<PP_HEADER generated="Generated by new atomic code, or converted to UPF format" author="" date="" comment="" element="Cu" pseudo_type="US" relativistic="scalar" is_ultrasoft="true" is_paw="false" is_coulomb="false" has_so="false" has_wfc="false" has_gipaw="false" paw_as_gipaw="false" core_correction="true" functional=" SLA  PZ   NOGX NOGC" z_valence="1.100000000000e1" total_psenergy="-1.205657458439e2" wfc_cutoff="0.000000000000e0" rho_cutoff="0.000000000000e0" l_max="2" l_max_rho="0" l_local="0" mesh_size="867" number_of_wfc="3" number_of_proj="6"/>
<PP_MESH mesh="867" rmax="2.024858180120e2" zmesh="2.900000000000e1">
<PP_R>
0.000000000000000e0 1.461062382070000e-6 2.947099586480000e-6 4.458538522960000e-6
5.995813398680001e-6 7.559365842960000e-6 9.149645034159999e-6 1.076710782870000e-5
1.241221889240000e-5 1.408545083380000e-5 1.578728434000000e-5 1.751820831490000e-5
1.927872001950000e-5 2.106932521460000e-5 2.289053830660000e-5 2.474288249470000e-5
2.662688992150000e-5 2.854310182590000e-5 3.049206869860000e-5 3.247435043989999e-5
3.449051652110000e-5 3.654114614760000e-5 3.862682842580000e-5 4.074816253170000e-5
4.290575788350001e-5 4.510023431670001e-5 4.733222226200001e-5 4.960236292609999e-5
5.191130847670000e-5 5.425972222900000e-5 5.664827883700000e-5 5.907766448669999e-5
6.154857709349999e-5 6.406172650299999e-5 6.661783469420000e-5 6.921763598759999e-5
7.186187725580000e-5 7.455131813820000e-5 7.728673125899999e-5 8.006890244949998e-5
8.289863097370000e-5 8.577672975780001e-5 8.870402562390002e-5 9.168135952749999e-5
9.470958679890000e-5 9.778957738929998e-5 1.009222161200000e-4 1.041084029390000e-4
1.073490531740000e-4 1.106450978020000e-4 1.139974837130000e-4 1.174071739830000e-4
1.208751481490000e-4 1.244024024940000e-4 1.279899503290000e-4 1.316388222870000e-4
1.353500666200000e-4 1.391247494940000e-4 1.429639553040000e-4 1.468687869800000e-4
1.508403663030000e-4 1.548798342330000e-4 1.589883512280000e-4 1.631670975880000e-4
1.674172737860000e-4 1.717401008130000e-4 1.761368205360000e-4 1.806086960460000e-4
1.851570120270000e-4 1.897830751220000e-4 1.944882143100000e-4 1.992737812850000e-4
2.041411508490000e-4 2.090917213020000e-4 2.141269148490000e-4 2.192481780020000e-4
2.244569820010000e-4 2.297548232350000e-4 2.351432236720000e-4 2.406237312930000e-4
2.461979205440000e-4 2.518673927810000e-4 2.576337767330000e-4 2.634987289710000e-4
2.694639343820000e-4 2.755311066550000e-4 2.817019887710000e-4 2.879783535039999e-4
2.943620039320000e-4 3.008547739560000e-4 3.074585288220000e-4 3.141751656610000e-4
3.210066140330000e-4 3.279548364810001e-4 3.350218290940000e-4 3.422096220830000e-4
3.495202803630000e-4 3.569559041420000e-4 3.645186295329999e-4 3.722106291600000e-4
3.800341127850000e-4 3.879913279450000e-4 3.960845605920000e-4 4.043161357560000e-4
4.126884182100000e-4 4.212038131480000e-4 4.298647668779999e-4 4.386737675250000e-4
4.476333457440001e-4 4.567460754480001e-4 4.660145745490000e-4 4.754415057069999e-4
4.850295770960001e-4 4.947815431850001e-4 5.047002055240001e-4 5.147884135530000e-4
5.250490654189999e-4 5.354851088090000e-4 5.460995417950000e-4 5.568954137010000e-4
5.678758259689999e-4 5.790439330610000e-4 5.904029433570001e-4 6.019561200809999e-4
6.137067822380001e-4 6.256583055650000e-4 6.378141235040000e-4 6.501777281850001e-4
6.627526714330000e-4 6.755425657870001e-4 6.885510855349999e-4 7.017819677729999e-4
7.152390134780000e-4 7.289260885980000e-4 7.428471251650000e-4 7.570061224250000e-4
7.714071479809999e-4 7.860543389720000e-4 8.009519032509999e-4 8.161041206000002e-4
8.315153439570000e-4 8.471900006700000e-4 8.631325937640000e-4 8.793477032370001e-4
8.958399873760001e-4 9.126141840960001e-4 9.296751122980000e-4 9.470276732579999e-4
9.646768520299998e-4 9.826277188810002e-4 1.000885430750000e-3 1.019455232720000e-3
1.038342459540000e-3 1.057552537140000e-3 1.077090984210000e-3 1.096963413770000e-3
1.117175534770000e-3 1.137733153770000e-3 1.158642176580000e-3 1.179908609960000e-3
1.201538563330000e-3 1.223538250570000e-3 1.245913991760000e-3 1.268672215020000e-3
1.291819458340000e-3 1.315362371480000e-3 1.339307717860000e-3 1.363662376530000e-3
1.388433344090000e-3 1.413627736770000e-3 1.439252792440000e-3 1.465315872670000e-3
1.491824464880000e-3 1.518786184470000e-3 1.546208777040000e-3 1.574100120560000e-3
1.602468227660000e-3 1.631321247970000e-3 1.660667470390000e-3 1.690515325530000e-3
1.720873388100000e-3 1.751750379380000e-3 1.783155169730000e-3 1.815096781140000e-3
1.847584389820000e-3 1.880627328830000e-3 1.914235090770000e-3 1.948417330500000e-3
1.983183867910000e-3 2.018544690760000e-3 2.054509957520000e-3 2.091090000320000e-3
2.128295327910000e-3 2.166136628640000e-3 2.204624773600000e-3 2.243770819680000e-3
2.283586012790000e-3 2.324081791060000e-3 2.365269788140000e-3 2.407161836540000e-3
2.449769971050000e-3 2.493106432160000e-3 2.537183669590000e-3 2.582014345869999e-3
2.627611340000000e-3 2.673987751110000e-3 2.721156902240000e-3 2.769132344190000e-3
2.817927859350000e-3 2.867557465750000e-3 2.918035421010000e-3 2.969376226470000e-3
3.021594631340000e-3 3.074705636960000e-3 3.128724501110000e-3 3.183666742350000e-3
3.239548144520001e-3 3.296384761280000e-3 3.354192920670001e-3 3.412989229880000e-3
3.472790579930001e-3 3.533614150600000e-3 3.595477415330000e-3 3.658398146230000e-3
3.722394419210000e-3 3.787484619160000e-3 3.853687445249999e-3 3.921021916250000e-3
3.989507376060000e-3 4.059163499220000e-3 4.130010296600000e-3 4.202068121100000e-3
4.275357673550000e-3 4.349900008620001e-3 4.425716540870001e-3 4.502829050920000e-3
4.581259691720000e-3 4.661030994870000e-3 4.742165877110000e-3 4.824687646930000e-3
4.908620011230000e-3 4.993987082169999e-3 5.080813384050000e-3 5.169123860380001e-3
5.258943881050000e-3 5.350299249630000e-3 5.443216210730000e-3 5.537721457610000e-3
5.633842139790000e-3 5.731605870890000e-3 5.831040736529999e-3 5.932175302419999e-3
6.035038622570000e-3 6.139660247620000e-3 6.246070233349999e-3 6.354299149270000e-3
6.464378087460000e-3 6.576338671470000e-3 6.690213065420001e-3 6.806033983199999e-3
6.923834697929999e-3 7.043649051480000e-3 7.165511464180002e-3 7.289456944760000e-3
7.415521100349999e-3 7.543740146739999e-3 7.674150918780000e-3 7.806790880970000e-3
7.941698138200001e-3 8.078911446710000e-3 8.218470225240001e-3 8.360414566310002e-3
8.504785247800001e-3 8.651623744600002e-3 8.800972240569999e-3 8.952873640649999e-3
9.107371583170000e-3 9.264510452390001e-3 9.424335391280001e-3 9.586892314450001e-3
9.752227921350000e-3 9.920389709700000e-3 1.009142598910000e-2 1.026538589510000e-2
1.044231940280000e-2 1.062227734200000e-2 1.080531141090000e-2 1.099147419180000e-2
1.118081916570000e-2 1.137340072760000e-2 1.156927420250000e-2 1.176849586120000e-2
1.197112293600000e-2 1.217721363790000e-2 1.238682717280000e-2 1.260002375840000e-2
1.281686464220000e-2 1.303741211830000e-2 1.326172954560000e-2 1.348988136630000e-2
1.372193312400000e-2 1.395795148260000e-2 1.419800424570000e-2 1.444216037570000e-2
1.469049001410000e-2 1.494306450100000e-2 1.519995639630000e-2 1.546123950000000e-2
1.572698887370000e-2 1.599728086210000e-2 1.627219311480000e-2 1.655180460880000e-2
1.683619567100000e-2 1.712544800160000e-2 1.741964469700000e-2 1.771887027440000e-2
1.802321069540000e-2 1.833275339120000e-2 1.864758728740000e-2 1.896780282960000e-2
1.929349200970000e-2 1.962474839170000e-2 1.996166713930000e-2 2.030434504260000e-2
2.065288054650000e-2 2.100737377840000e-2 2.136792657730000e-2 2.173464252320000e-2
2.210762696630000e-2 2.248698705800000e-2 2.287283178100000e-2 2.326527198100000e-2
2.366442039860000e-2 2.407039170130000e-2 2.448330251680000e-2 2.490327146650000e-2
2.533041919930000e-2 2.576486842640000e-2 2.620674395670000e-2 2.665617273260001e-2
2.711328386610000e-2 2.757820867650000e-2 2.805108072770000e-2 2.853203586660000e-2
2.902121226249999e-2 2.951875044610000e-2 3.002479335060000e-2 3.053948635230000e-2
3.106297731250000e-2 3.159541662020000e-2 3.213695723470000e-2 3.268775473020000e-2
3.324796734020000e-2 3.381775600300000e-2 3.439728440770000e-2 3.498671904170000e-2
3.558622923820000e-2 3.619598722480000e-2 3.681616817310001e-2 3.744695024930000e-2
3.808851466470000e-2 3.874104572840000e-2 3.940473089999999e-2 4.007976084340000e-2
4.076632948149999e-2 4.146463405230000e-2 4.217487516520000e-2 4.289725685870000e-2
4.363198665910001e-2 4.437927564010000e-2 4.513933848320001e-2 4.591239353990001e-2
4.669866289390000e-2 4.749837242510000e-2 4.831175187470000e-2 4.913903491090000e-2
4.998045919600000e-2 5.083626645490000e-2 5.170670254450000e-2 5.259201752429999e-2
5.349246572820000e-2 5.440830583740000e-2 5.533980095510000e-2 5.628721868180000e-2
5.725083119230000e-2 5.823091531390000e-2 5.922775260570000e-2 6.024162943990000e-2
6.127283708349999e-2 6.232167178259999e-2 6.338843484709999e-2 6.447343273750000e-2
6.557697715249999e-2 6.669938511920000e-2 6.784097908360000e-2 6.900208700360000e-2
7.018304244310000e-2 7.138418466760000e-2 7.260585874220000e-2 7.384841563000000e-2
7.511221229379999e-2 7.639761179770000e-2 7.770498341220000e-2 7.903470271990000e-2
8.038715172340000e-2 8.176271895510000e-2 8.316179958879999e-2 8.458479555339999e-2
8.603211564810000e-2 8.750417565990000e-2 8.900139848320000e-2 9.052421424110001e-2
9.207306040910000e-2 9.364838194079999e-2 9.525063139549999e-2 9.688026906850000e-2
9.853776312320001e-2 1.002235897260000e-1 1.019382331810000e-1 1.036821860730000e-1
1.054559494060000e-1 1.072600327480000e-1 1.090949543760000e-1 1.109612414300000e-1
1.128594300550000e-1 1.147900655660000e-1 1.167537025970000e-1 1.187509052620000e-1
1.207822473200000e-1 1.228483123340000e-1 1.249496938470000e-1 1.270869955450000e-1
1.292608314320000e-1 1.314718260090000e-1 1.337206144530000e-1 1.360078427970000e-1
1.383341681180000e-1 1.407002587230000e-1 1.431067943450000e-1 1.455544663350000e-1
1.480439778620000e-1 1.505760441140000e-1 1.531513925040000e-1 1.557707628810000e-1
1.584349077390000e-1 1.611445924360000e-1 1.639005954100000e-1 1.667037084090000e-1
1.695547367130000e-1 1.724544993660000e-1 1.754038294160000e-1 1.784035741460000e-1
1.814545953260000e-1 1.845577694550000e-1 1.877139880150000e-1 1.909241577260000e-1
1.941892008080000e-1 1.975100552460000e-1 2.008876750550000e-1 2.043230305610000e-1
2.078171086740000e-1 2.113709131770000e-1 2.149854650080000e-1 2.186618025580000e-1
2.224009819680000e-1 2.262040774310000e-1 2.300721815040000e-1 2.340064054170000e-1
2.380078793980000e-1 2.420777529910000e-1 2.462171953940000e-1 2.504273957880000e-1
2.547095636810000e-1 2.590649292590000e-1 2.634947437320000e-1 2.680002797020000e-1
2.725828315210000e-1 2.772437156680000e-1 2.819842711240000e-1 2.868058597610000e-1
2.917098667250000e-1 2.966977008450000e-1 3.017707950280000e-1 3.069306066760000e-1
3.121786181030000e-1 3.175163369610000e-1 3.229452966740000e-1 3.284670568760000e-1
3.340832038630000e-1 3.397953510440000e-1 3.456051394100000e-1 3.515142379990000e-1
3.575243443820000e-1 3.636371851460000e-1 3.698545163910000e-1 3.761781242370000e-1
3.826098253340000e-1 3.891514673850000e-1 3.958049296770000e-1 4.025721236220000e-1
4.094549933020001e-1 4.164555160340000e-1 4.235757029320000e-1 4.308175994880000e-1
4.381832861590000e-1 4.456748789640000e-1 4.532945300920000e-1 4.610444285230000e-1
4.689268006510000e-1 4.769439109300000e-1 4.850980625200000e-1 4.933915979520000e-1
5.018268997970000e-1 5.104063913550000e-1 5.191325373480000e-1 5.280078446270000e-1
5.370348628990000e-1 5.462161854490000e-1 5.555544498950001e-1 5.650523389390000e-1
5.747125811410000e-1 5.845379517010000e-1 5.945312732590001e-1 6.046954167020000e-1
6.150333019920000e-1 6.255478990030000e-1 6.362422283760000e-1 6.471193623840001e-1
6.581824258170000e-1 6.694345968810000e-1 6.808791081050000e-1 6.925192472760000e-1
7.043583583820000e-1 7.163998425680001e-1 7.286471591220000e-1 7.411038264599999e-1
7.537734231410001e-1 7.666595888960001e-1 7.797660256700000e-1 7.930964986890000e-1
8.066548375400000e-1 8.204449372719999e-1 8.344707595130000e-1 8.487363336100000e-1
8.632457577880000e-1 8.780032003220001e-1 8.930129007410001e-1 9.082791710400000e-1
9.238063969250000e-1 9.395990390660000e-1 9.556616343840000e-1 9.719987973520000e-1
9.886152213200001e-1 1.005515679870000e0 1.022705028160000e0 1.040188204380000e0
1.057970231100000e0 1.076056216740000e0 1.094451357070000e0 1.113160936650000e0
1.132190330380000e0 1.151545005040000e0 1.171230520860000e0 1.191252533090000e0
1.211616793680000e0 1.232329152880000e0 1.253395560950000e0 1.274822069870000e0
1.296614835060000e0 1.318780117160000e0 1.341324283810000e0 1.364253811540000e0
1.387575287540000e0 1.411295411620000e0 1.435420998120000e0 1.459958977850000e0
1.484916400100000e0 1.510300434660000e0 1.536118373850000e0 1.562377634690000e0
1.589085760940000e0 1.616250425340000e0 1.643879431760000e0 1.671980717490000e0
1.700562355480000e0 1.729632556680000e0 1.759199672400000e0 1.789272196700000e0
1.819858768830000e0 1.850968175730000e0 1.882609354520000e0 1.914791395100000e0
1.947523542750000e0 1.980815200790000e0 2.014675933250000e0 2.049115467690000e0
2.084143697900000e0 2.119770686810000e0 2.156006669390000e0 2.192862055510000e0
2.230347433020000e0 2.268473570750000e0 2.307251421590000e0 2.346692125680000e0
2.386807013550000e0 2.427607609450000e0 2.469105634590000e0 2.511313010560000e0
2.554241862720000e0 2.597904523690000e0 2.642313536910000e0 2.687481660240000e0
2.733421869600000e0 2.780147362720000e0 2.827671562940000e0 2.876008123030000e0
2.925170929160000e0 2.975174104850000e0 3.026032015040000e0 3.077759270230000e0
3.130370730650000e0 3.183881510570000e0 3.238306982590000e0 3.293662782090000e0
3.349964811730000e0 3.407229245990000e0 3.465472535840000e0 3.524711413440000e0
3.584962896980000e0 3.646244295550000e0 3.708573214090000e0 3.771967558520000e0
3.836445540780000e0 3.902025684170000e0 3.968726828580000e0 4.036568135970000e0
4.105569095830000e0 4.175749530800000e0 4.247129602350000e0 4.319729816620000e0
4.393571030220000e0 4.468674456320000e0 4.545061670670000e0 4.622754617840000e0
4.701775617520000e0 4.782147370900000e0 4.863892967240000e0 4.947035890460000e0
5.031600025920000e0 5.117609667260000e0 5.205089523370000e0 5.294064725540000e0
5.384560834620000e0 5.476603848390000e0 5.570220209010000e0 5.665436810670000e0
5.762281007250000e0 5.860780620220000e0 5.960963946600000e0 6.062859767130000e0
6.166497354500000e0 6.271906481790000e0 6.379117431000000e0 6.488161001760000e0
6.599068520180000e0 6.711871847850000e0 6.826603390970000e0 6.943296109700000e0
7.061983527600000e0 7.182699741270000e0 7.305479430130000e0 7.430357866430000e0
7.557370925310000e0 7.686555095170000e0 7.817947488120000e0 7.951585850660000e0
8.087508574499999e0 8.225754707609999e0 8.366363965420000e0 8.509376742260001e0
8.654834122930000e0 8.802777894520000e0 8.953250558420001e0 9.106295342499999e0
9.261956213570000e0 9.420277889990000e0 9.581305854509999e0 9.745086367360001e0
9.911666479499999e0 1.008109404620000e1 1.025341774060000e1 1.042868706820000e1
1.060695238020000e1 1.078826488900000e1 1.097267668210000e1 1.116024073750000e1
1.135101093850000e1 1.154504209000000e1 1.174238993320000e1 1.194311116230000e1
1.214726344070000e1 1.235490541740000e1 1.256609674390000e1 1.278089809140000e1
1.299937116810000e1 1.322157873720000e1 1.344758463460000e1 1.367745378730000e1
1.391125223240000e1 1.414904713570000e1 1.439090681090000e1 1.463690073980000e1
1.488709959150000e1 1.514157524350000e1 1.540040080150000e1 1.566365062130000e1
1.593140032930000e1 1.620372684490000e1 1.648070840230000e1 1.676242457280000e1
1.704895628800000e1 1.734038586310000e1 1.763679702000000e1 1.793827491200000e1
1.824490614770000e1 1.855677881660000e1 1.887398251340000e1 1.919660836470000e1
1.952474905480000e1 1.985849885190000e1 2.019795363600000e1 2.054321092600000e1
2.089436990740000e1 2.125153146160000e1 2.161479819410000e1 2.198427446440000e1
2.236006641580000e1 2.274228200630000e1 2.313103103880000e1 2.352642519350000e1
2.392857805940000e1 2.433760516740000e1 2.475362402290000e1 2.517675414010000e1
2.560711707620000e1 2.604483646600000e1 2.649003805790000e1 2.694284974980000e1
2.740340162550000e1 2.787182599280000e1 2.834825742090000e1 2.883283277930000e1
2.932569127730000e1 2.982697450340000e1 3.033682646670000e1 3.085539363770000e1
3.138282499080000e1 3.191927204680000e1 3.246488891650000e1 3.301983234510000e1
3.358426175720000e1 3.415833930240000e1 3.474222990200000e1 3.533610129650000e1
3.594012409370000e1 3.655447181760000e1 3.717932095840000e1 3.781485102330000e1
3.846124458770000e1 3.911868734800001e1 3.978736817470000e1 4.046747916690000e1
4.115921570730000e1 4.186277651860000e1 4.257836372000000e1 4.330618288590000e1
4.404644310470000e1 4.479935703880000e1 4.556514098580000e1 4.634401494070000e1
4.713620265889999e1 4.794193172050000e1 4.876143359590000e1 4.959494371210000e1
5.044270152060000e1 5.130495056560001e1 5.218193855470000e1 5.307391742950000e1
5.398114343840000e1 5.490387720970000e1 5.584238382710001e1 5.679693290530000e1
5.776779866780000e1 5.875526002560001e1 5.975960065710001e1 6.078110909010000e1
6.182007878410000e1 6.287680821510000e1 6.395160096080001e1 6.504476578860000e1
6.615661674350000e1 6.728747323870000e1 6.843766014740000e1 6.960750789620000e1
7.079735255960000e1 7.200753595690000e1 7.323840575040001e1 7.449031554530001e1
7.576362499090000e1 7.705869988440000e1 7.837591227590001e1 7.971564057480001e1
8.107826965930000e1 8.246419098620001e1 8.387380270400000e1 8.530750976689999e1
8.676572405109999e1 8.824886447340001e1 8.975735711130000e1 9.129163532560000e1
9.285213988470000e1 9.443931909140000e1 9.605362891160000e1 9.769553310510000e1
9.936550335940000e1 1.010640194250000e2 1.027915692510000e2 1.045486491310000e2
1.063357638400000e2 1.081534267800000e2 1.100021601320000e2 1.118824950000000e2
1.137949715680000e2 1.157401392540000e2 1.177185568670000e2 1.197307927680000e2
1.217774250340000e2 1.238590416220000e2 1.259762405400000e2 1.281296300190000e2
1.303198286860000e2 1.325474657420000e2 1.348131811450000e2 1.371176257910000e2
1.394614617010000e2 1.418453622160000e2 1.442700121830000e2 1.467361081570000e2
1.492443586000000e2 1.517954840840000e2 1.543902174970000e2 1.570293042580000e2
1.597135025230000e2 1.624435834110000e2 1.652203312220000e2 1.680445436620000e2
1.709170320710000e2 1.738386216610000e2 1.768101517480000e2 1.798324759950000e2
1.829064626560000e2 1.860329948300000e2 1.892129707070000e2 1.924473038340000e2
1.957369233720000e2 1.990827743660000e2 2.024858180120000e2
</PP_R>
<PP_RAB>
1.448715474380000e-6 1.473479243570000e-6 1.498666314830000e-6 1.524283923920000e-6
1.550339430290000e-6 1.576840319180000e-6 1.603794203770000e-6 1.631208827410000e-6
1.659092065780000e-6 1.687451929190000e-6 1.716296564890000e-6 1.745634259380000e-6
1.775473440810000e-6 1.805822681410000e-6 1.836690699919999e-6 1.868086364120000e-6
1.900018693390000e-6 1.932496861260000e-6 1.965530198090000e-6 1.999128193700000e-6
2.033300500160000e-6 2.068056934510000e-6 2.103407481600000e-6 2.139362296950000e-6
2.175931709699999e-6 2.213126225509999e-6 2.250956529670000e-6 2.289433490080000e-6
2.328568160430000e-6 2.368371783350000e-6 2.408855793650000e-6 2.450031821610001e-6
2.491911696310000e-6 2.534507449009999e-6 2.577831316660000e-6 2.621895745360000e-6
2.666713393970000e-6 2.712297137739999e-6 2.758660071990000e-6 2.805815515900000e-6
2.853777016310000e-6 2.902558351630000e-6 2.952173535800000e-6 3.002636822300000e-6
3.053962708259999e-6 3.106165938610000e-6 3.159261510320000e-6 3.213264676729999e-6
3.268190951899999e-6 3.324056115100000e-6 3.380876215290001e-6 3.438667575790000e-6
3.497446798950000e-6 3.557230770890000e-6 3.618036666400000e-6 3.679881953830000e-6
3.742784400140000e-6 3.806762075980000e-6 3.871833360900000e-6 3.938016948619999e-6
4.005331852400000e-6 4.073797410530000e-6 4.143433291810001e-6 4.214259501300000e-6
4.286296386000000e-6 4.359564640709999e-6 4.434085313970000e-6 4.509879814140000e-6
4.586969915520000e-6 4.665377764590001e-6 4.745125886410000e-6 4.826237191070000e-6
4.908734980290000e-6 4.992642954080000e-6 5.077985217580000e-6 5.164786287970000e-6
5.253071101520001e-6 5.342865020739999e-6 5.434193841699999e-6 5.527083801389999e-6
5.621561585300000e-6 5.717654335070000e-6 5.815389656290000e-6 5.914795626430001e-6
6.015900802900001e-6 6.118734231249999e-6 6.223325453539999e-6 6.329704516820001e-6
6.437901981709999e-6 6.547948931260001e-6 6.659876979840002e-6 6.773718282190000e-6
6.889505542729999e-6 7.007272024900000e-6 7.127051560720000e-6 7.248878560540001e-6
7.372788022900001e-6 7.498815544589999e-6 7.626997330869999e-6 7.757370205910002e-6
7.889971623280000e-6 8.024839676829998e-6 8.162013111530001e-6 8.301531334660000e-6
8.443434427090001e-6 8.587763154849998e-6 8.734558980790002e-6 8.883864076500000e-6
9.035721334440000e-6 9.190174380280000e-6 9.347267585379999e-6 9.507046079580000e-6
9.669555764140000e-6 9.834843324969999e-6 1.000295624600000e-5 1.017394282270000e-5
1.034785217640000e-5 1.052473426770000e-5 1.070463991160000e-5 1.088762079130000e-5
1.107372947390000e-5 1.126301942460000e-5 1.145554502280000e-5 1.165136157750000e-5
1.185052534280000e-5 1.205309353480000e-5 1.225912434730000e-5 1.246867696900000e-5
1.268181160040000e-5 1.289858947080000e-5 1.311907285630000e-5 1.334332509770000e-5
1.357141061810000e-5 1.380339494210000e-5 1.403934471450000e-5 1.427932771890000e-5
1.452341289780000e-5 1.477167037220000e-5 1.502417146170000e-5 1.528098870490000e-5
1.554219588040000e-5 1.580786802810000e-5 1.607808147040000e-5 1.635291383430000e-5
1.663244407400000e-5 1.691675249300000e-5 1.720592076760000e-5 1.750003197030000e-5
1.779917059350000e-5 1.810342257410000e-5 1.841287531760000e-5 1.872761772390000e-5
1.904774021240000e-5 1.937333474800000e-5 1.970449486780000e-5 2.004131570770000e-5
2.038389402980000e-5 2.073232825020000e-5 2.108671846730000e-5 2.144716649060000e-5
2.181377586980000e-5 2.218665192470000e-5 2.256590177540000e-5 2.295163437300000e-5
2.334396053100000e-5 2.374299295710000e-5 2.414884628560000e-5 2.456163711040000e-5
2.498148401830000e-5 2.540850762310000e-5 2.584283060040000e-5 2.628457772290000e-5
2.673387589600000e-5 2.719085419430000e-5 2.765564389880000e-5 2.812837853470000e-5
2.860919390940000e-5 2.909822815190000e-5 2.959562175230000e-5 3.010151760210000e-5
3.061606103540000e-5 3.113939987060000e-5 3.167168445280000e-5 3.221306769710000e-5
3.276370513240000e-5 3.332375494610000e-5 3.389337802990000e-5 3.447273802520000e-5
3.506200137120000e-5 3.566133735160000e-5 3.627091814420000e-5 3.689091886970000e-5
3.752151764230000e-5 3.816289562080000e-5 3.881523706080001e-5 3.947872936730001e-5
4.015356314880000e-5 4.083993227190001e-5 4.153803391739999e-5 4.224806863610000e-5
4.297024040750000e-5 4.370475669739999e-5 4.445182851820000e-5 4.521167048920000e-5
4.598450089810000e-5 4.677054176440000e-5 4.757001890230001e-5 4.838316198600000e-5
4.921020461600000e-5 5.005138438550000e-5 5.090694294910000e-5 5.177712609239999e-5
5.266218380209999e-5 5.356237033820000e-5 5.447794430670000e-5 5.540916873450000e-5
5.635631114420000e-5 5.731964363160000e-5 5.829944294340001e-5 5.929599055699999e-5
6.030957276130000e-5 6.134048073880000e-5 6.238901064940000e-5 6.345546371549999e-5
6.454014630850001e-5 6.564337003650000e-5 6.676545183450000e-5 6.790671405479999e-5
6.906748456010002e-5 7.024809681709999e-5 7.144888999300001e-5 7.267020905240001e-5
7.391240485660000e-5 7.517583426450001e-5 7.646086023480001e-5 7.776785193070000e-5
7.909718482560001e-5 8.044924081110000e-5 8.182440830670002e-5 8.322308237150001e-5
8.464566481729998e-5 8.609256432480000e-5 8.756419655990001e-5 8.906098429429999e-5
9.058335752610002e-5 9.213175360370000e-5 9.370661735120001e-5 9.530840119660001e-5
9.693756530139998e-5 9.859457769280001e-5 1.002799143990000e-4 1.019940595830000e-4
1.037375056870000e-4 1.055107535700000e-4 1.073143126500000e-4 1.091487010550000e-4
1.110144457700000e-4 1.129120827870000e-4 1.148421572610000e-4 1.168052236640000e-4
1.188018459480000e-4 1.208325977030000e-4 1.228980623250000e-4 1.249988331820000e-4
1.271355137850000e-4 1.293087179610000e-4 1.315190700300000e-4 1.337672049820000e-4
1.360537686640000e-4 1.383794179610000e-4 1.407448209870000e-4 1.431506572760000e-4
1.455976179790000e-4 1.480864060610000e-4 1.506177365010000e-4 1.531923365020000e-4
1.558109456980000e-4 1.584743163620000e-4 1.611832136320000e-4 1.639384157190000e-4
1.667407141410000e-4 1.695909139440000e-4 1.724898339340000e-4 1.754383069160000e-4
1.784371799290000e-4 1.814873144910000e-4 1.845895868460000e-4 1.877448882170000e-4
1.909541250620000e-4 1.942182193320000e-4 1.975381087370000e-4 2.009147470190000e-4
2.043491042200000e-4 2.078421669650000e-4 2.113949387420000e-4 2.150084401940000e-4
2.186837094100000e-4 2.224218022250000e-4 2.262237925190000e-4 2.300907725310000e-4
2.340238531690000e-4 2.380241643320000e-4 2.420928552320000e-4 2.462310947240000e-4
2.504400716450000e-4 2.547209951520000e-4 2.590750950720000e-4 2.635036222540000e-4
2.680078489270000e-4 2.725890690690000e-4 2.772485987760000e-4 2.819877766400000e-4
2.868079641360000e-4 2.917105460090000e-4 2.966969306779999e-4 3.017685506340000e-4
3.069268628550001e-4 3.121733492240000e-4 3.175095169560000e-4 3.229368990269999e-4
3.284570546210000e-4 3.340715695710000e-4 3.397820568180000e-4 3.455901568750000e-4
3.514975382960000e-4 3.575058981579999e-4 3.636169625469999e-4 3.698324870530000e-4
3.761542572760001e-4 3.825840893380000e-4 3.891238304060000e-4 3.957753592200000e-4
4.025405866370000e-4 4.094214561740000e-4 4.164199445730000e-4 4.235380623650000e-4
4.307778544450001e-4 4.381414006680000e-4 4.456308164360000e-4 4.532482533150000e-4
4.609958996460001e-4 4.688759811780000e-4 4.768907617060000e-4 4.850425437230000e-4
4.933336690759999e-4 5.017665196450000e-4 5.103435180260001e-4 5.190671282249999e-4
5.279398563650000e-4 5.369642514090000e-4 5.461429058919999e-4 5.554784566640000e-4
5.649735856480000e-4 5.746310206090000e-4 5.844535359440000e-4 5.944439534699999e-4
6.046051432400001e-4 6.149400243690000e-4 6.254515658670000e-4 6.361427874960000e-4
6.470167606390000e-4 6.580766091770000e-4 6.693255103900000e-4 6.807666958700000e-4
6.924034524489999e-4 7.042391231409999e-4 7.162771081060002e-4 7.285208656230001e-4
7.409739130869999e-4 7.536398280180001e-4 7.665222490880000e-4 7.796248771670000e-4
7.929514763870000e-4 8.065058752220001e-4 8.202919675890000e-4 8.343137139640000e-4
8.485751425249999e-4 8.630803503030000e-4 8.778335043649999e-4 8.928388430060000e-4
9.081006769690001e-4 9.236233906839999e-4 9.394114435260001e-4 9.554693710980001e-4
9.718017865309999e-4 9.884133818120000e-4 1.005308929130000e-3 1.022493282250000e-3
1.039971377910000e-3 1.057748237210000e-3 1.075828967120000e-3 1.094218761870000e-3
1.112922904500000e-3 1.131946768340000e-3 1.151295818590000e-3 1.170975613840000e-3
1.190991807730000e-3 1.211350150520000e-3 1.232056490770000e-3 1.253116777000000e-3
1.274537059440000e-3 1.296323491710000e-3 1.318482332630000e-3 1.341019948020000e-3
1.363942812480000e-3 1.387257511320000e-3 1.410970742400000e-3 1.435089318080000e-3
1.459620167140000e-3 1.484570336830000e-3 1.509946994850000e-3 1.535757431430000e-3
1.562009061390000e-3 1.588709426330000e-3 1.615866196750000e-3 1.643487174260000e-3
1.671580293830000e-3 1.700153626080000e-3 1.729215379560000e-3 1.758773903150000e-3
1.788837688460000e-3 1.819415372220000e-3 1.850515738800000e-3 1.882147722750000e-3
1.914320411320000e-3 1.947043047100000e-3 1.980325030680000e-3 2.014175923310000e-3
2.048605449700000e-3 2.083623500800000e-3 2.119240136620000e-3 2.155465589110000e-3
2.192310265160000e-3 2.229784749530000e-3 2.267899807900000e-3 2.306666390010000e-3
2.346095632730000e-3 2.386198863330000e-3 2.426987602680000e-3 2.468473568620000e-3
2.510668679240000e-3 2.553585056380000e-3 2.597235029110000e-3 2.641631137190000e-3
2.686786134790000e-3 2.732712994040000e-3 2.779424908869999e-3 2.826935298680000e-3
2.875257812300000e-3 2.924406331850000e-3 2.974394976760000e-3 3.025238107780000e-3
3.076950331170000e-3 3.129546502840000e-3 3.183041732670000e-3 3.237451388800000e-3
3.292791102060000e-3 3.349076770480000e-3 3.406324563860000e-3 3.464550928360000e-3
3.523772591310000e-3 3.584006565930000e-3 3.645270156290001e-3 3.707580962220000e-3
3.770956884420000e-3 3.835416129560000e-3 3.900977215540000e-3 3.967658976780000e-3
4.035480569670000e-3 4.104461478040000e-3 4.174621518760000e-3 4.245980847470000e-3
4.318559964310000e-3 4.392379719860000e-3 4.467461321100000e-3 4.543826337540001e-3
4.621496707350000e-3 4.700494743739999e-3 4.780843141309999e-3 4.862564982600000e-3
4.945683744720000e-3 5.030223306070001e-3 5.116207953240000e-3 5.203662387950000e-3
5.292611734169999e-3 5.383081545330000e-3 5.475097811640000e-3 5.568686967609999e-3
5.663875899590000e-3 5.760691953509999e-3 5.859162942750000e-3 5.959317156130000e-3
6.061183366009999e-3 6.164790836590001e-3 6.270169332269999e-3 6.377349126270000e-3
6.486361009270000e-3 6.597236298269999e-3 6.710006845600001e-3 6.824705048050000e-3
6.941363856190000e-3 7.060016783849999e-3 7.180697917720000e-3 7.303441927140000e-3
7.428284074100000e-3 7.555260223340000e-3 7.684406852630000e-3 7.815761063319999e-3